# vtk DataFile Version 2.0
VTK from Matlab
ASCII
DATASET STRUCTURED_GRID
DIMENSIONS 40 40 40
POINTS 64000 float
0.00 0.00 0.00 0.00 0.00 0.13 0.00 0.00 0.26 0.00 0.00 0.38 0.00 0.00 0.51 0.00 0.00 0.64 0.00 0.00 0.77 0.00 0.00 0.90 0.00 0.00 1.03 0.00 0.00 1.15 0.00 0.00 1.28 0.00 0.00 1.41 0.00 0.00 1.54 0.00 0.00 1.67 0.00 0.00 1.79 0.00 0.00 1.92 0.00 0.00 2.05 0.00 0.00 2.18 0.00 0.00 2.31 0.00 0.00 2.44 0.00 0.00 2.56 0.00 0.00 2.69 0.00 0.00 2.82 0.00 0.00 2.95 0.00 0.00 3.08 0.00 0.00 3.21 0.00 0.00 3.33 0.00 0.00 3.46 0.00 0.00 3.59 0.00 0.00 3.72 0.00 0.00 3.85 0.00 0.00 3.97 0.00 0.00 4.10 0.00 0.00 4.23 0.00 0.00 4.36 0.00 0.00 4.49 0.00 0.00 4.62 0.00 0.00 4.74 0.00 0.00 4.87 0.00 0.00 5.00 0.00 0.15 0.00 0.00 0.15 0.13 0.00 0.15 0.26 0.00 0.15 0.38 0.00 0.15 0.51 0.00 0.15 0.64 0.00 0.15 0.77 0.00 0.15 0.90 0.00 0.15 1.03 0.00 0.15 1.15 0.00 0.15 1.28 0.00 0.15 1.41 0.00 0.15 1.54 0.00 0.15 1.67 0.00 0.15 1.79 0.00 0.15 1.92 0.00 0.15 2.05 0.00 0.15 2.18 0.00 0.15 2.31 0.00 0.15 2.44 0.00 0.15 2.56 0.00 0.15 2.69 0.00 0.15 2.82 0.00 0.15 2.95 0.00 0.15 3.08 0.00 0.15 3.21 0.00 0.15 3.33 0.00 0.15 3.46 0.00 0.15 3.59 0.00 0.15 3.72 0.00 0.15 3.85 0.00 0.15 3.97 0.00 0.15 4.10 0.00 0.15 4.23 0.00 0.15 4.36 0.00 0.15 4.49 0.00 0.15 4.62 0.00 0.15 4.74 0.00 0.15 4.87 0.00 0.15 5.00 0.00 0.31 0.00 0.00 0.31 0.13 0.00 0.31 0.26 0.00 0.31 0.38 0.00 0.31 0.51 0.00 0.31 0.64 0.00 0.31 0.77 0.00 0.31 0.90 0.00 0.31 1.03 0.00 0.31 1.15 0.00 0.31 1.28 0.00 0.31 1.41 0.00 0.31 1.54 0.00 0.31 1.67 0.00 0.31 1.79 0.00 0.31 1.92 0.00 0.31 2.05 0.00 0.31 2.18 0.00 0.31 2.31 0.00 0.31 2.44 0.00 0.31 2.56 0.00 0.31 2.69 0.00 0.31 2.82 0.00 0.31 2.95 0.00 0.31 3.08 0.00 0.31 3.21 0.00 0.31 3.33 0.00 0.31 3.46 0.00 0.31 3.59 0.00 0.31 3.72 0.00 0.31 3.85 0.00 0.31 3.97 0.00 0.31 4.10 0.00 0.31 4.23 0.00 0.31 4.36 0.00 0.31 4.49 0.00 0.31 4.62 0.00 0.31 4.74 0.00 0.31 4.87 0.00 0.31 5.00 0.00 0.46 0.00 0.00 0.46 0.13 0.00 0.46 0.26 0.00 0.46 0.38 0.00 0.46 0.51 0.00 0.46 0.64 0.00 0.46 0.77 0.00 0.46 0.90 0.00 0.46 1.03 0.00 0.46 1.15 0.00 0.46 1.28 0.00 0.46 1.41 0.00 0.46 1.54 0.00 0.46 1.67 0.00 0.46 1.79 0.00 0.46 1.92 0.00 0.46 2.05 0.00 0.46 2.18 0.00 0.46 2.31 0.00 0.46 2.44 0.00 0.46 2.56 0.00 0.46 2.69 0.00 0.46 2.82 0.00 0.46 2.95 0.00 0.46 3.08 0.00 0.46 3.21 0.00 0.46 3.33 0.00 0.46 3.46 0.00 0.46 3.59 0.00 0.46 3.72 0.00 0.46 3.85 0.00 0.46 3.97 0.00 0.46 4.10 0.00 0.46 4.23 0.00 0.46 4.36 0.00 0.46 4.49 0.00 0.46 4.62 0.00 0.46 4.74 0.00 0.46 4.87 0.00 0.46 5.00 0.00 0.62 0.00 0.00 0.62 0.13 0.00 0.62 0.26 0.00 0.62 0.38 0.00 0.62 0.51 0.00 0.62 0.64 0.00 0.62 0.77 0.00 0.62 0.90 0.00 0.62 1.03 0.00 0.62 1.15 0.00 0.62 1.28 0.00 0.62 1.41 0.00 0.62 1.54 0.00 0.62 1.67 0.00 0.62 1.79 0.00 0.62 1.92 0.00 0.62 2.05 0.00 0.62 2.18 0.00 0.62 2.31 0.00 0.62 2.44 0.00 0.62 2.56 0.00 0.62 2.69 0.00 0.62 2.82 0.00 0.62 2.95 0.00 0.62 3.08 0.00 0.62 3.21 0.00 0.62 3.33 0.00 0.62 3.46 0.00 0.62 3.59 0.00 0.62 3.72 0.00 0.62 3.85 0.00 0.62 3.97 0.00 0.62 4.10 0.00 0.62 4.23 0.00 0.62 4.36 0.00 0.62 4.49 0.00 0.62 4.62 0.00 0.62 4.74 0.00 0.62 4.87 0.00 0.62 5.00 0.00 0.77 0.00 0.00 0.77 0.13 0.00 0.77 0.26 0.00 0.77 0.38 0.00 0.77 0.51 0.00 0.77 0.64 0.00 0.77 0.77 0.00 0.77 0.90 0.00 0.77 1.03 0.00 0.77 1.15 0.00 0.77 1.28 0.00 0.77 1.41 0.00 0.77 1.54 0.00 0.77 1.67 0.00 0.77 1.79 0.00 0.77 1.92 0.00 0.77 2.05 0.00 0.77 2.18 0.00 0.77 2.31 0.00 0.77 2.44 0.00 0.77 2.56 0.00 0.77 2.69 0.00 0.77 2.82 0.00 0.77 2.95 0.00 0.77 3.08 0.00 0.77 3.21 0.00 0.77 3.33 0.00 0.77 3.46 0.00 0.77 3.59 0.00 0.77 3.72 0.00 0.77 3.85 0.00 0.77 3.97 0.00 0.77 4.10 0.00 0.77 4.23 0.00 0.77 4.36 0.00 0.77 4.49 0.00 0.77 4.62 0.00 0.77 4.74 0.00 0.77 4.87 0.00 0.77 5.00 0.00 0.92 0.00 0.00 0.92 0.13 0.00 0.92 0.26 0.00 0.92 0.38 0.00 0.92 0.51 0.00 0.92 0.64 0.00 0.92 0.77 0.00 0.92 0.90 0.00 0.92 1.03 0.00 0.92 1.15 0.00 0.92 1.28 0.00 0.92 1.41 0.00 0.92 1.54 0.00 0.92 1.67 0.00 0.92 1.79 0.00 0.92 1.92 0.00 0.92 2.05 0.00 0.92 2.18 0.00 0.92 2.31 0.00 0.92 2.44 0.00 0.92 2.56 0.00 0.92 2.69 0.00 0.92 2.82 0.00 0.92 2.95 0.00 0.92 3.08 0.00 0.92 3.21 0.00 0.92 3.33 0.00 0.92 3.46 0.00 0.92 3.59 0.00 0.92 3.72 0.00 0.92 3.85 0.00 0.92 3.97 0.00 0.92 4.10 0.00 0.92 4.23 0.00 0.92 4.36 0.00 0.92 4.49 0.00 0.92 4.62 0.00 0.92 4.74 0.00 0.92 4.87 0.00 0.92 5.00 0.00 1.08 0.00 0.00 1.08 0.13 0.00 1.08 0.26 0.00 1.08 0.38 0.00 1.08 0.51 0.00 1.08 0.64 0.00 1.08 0.77 0.00 1.08 0.90 0.00 1.08 1.03 0.00 1.08 1.15 0.00 1.08 1.28 0.00 1.08 1.41 0.00 1.08 1.54 0.00 1.08 1.67 0.00 1.08 1.79 0.00 1.08 1.92 0.00 1.08 2.05 0.00 1.08 2.18 0.00 1.08 2.31 0.00 1.08 2.44 0.00 1.08 2.56 0.00 1.08 2.69 0.00 1.08 2.82 0.00 1.08 2.95 0.00 1.08 3.08 0.00 1.08 3.21 0.00 1.08 3.33 0.00 1.08 3.46 0.00 1.08 3.59 0.00 1.08 3.72 0.00 1.08 3.85 0.00 1.08 3.97 0.00 1.08 4.10 0.00 1.08 4.23 0.00 1.08 4.36 0.00 1.08 4.49 0.00 1.08 4.62 0.00 1.08 4.74 0.00 1.08 4.87 0.00 1.08 5.00 0.00 1.23 0.00 0.00 1.23 0.13 0.00 1.23 0.26 0.00 1.23 0.38 0.00 1.23 0.51 0.00 1.23 0.64 0.00 1.23 0.77 0.00 1.23 0.90 0.00 1.23 1.03 0.00 1.23 1.15 0.00 1.23 1.28 0.00 1.23 1.41 0.00 1.23 1.54 0.00 1.23 1.67 0.00 1.23 1.79 0.00 1.23 1.92 0.00 1.23 2.05 0.00 1.23 2.18 0.00 1.23 2.31 0.00 1.23 2.44 0.00 1.23 2.56 0.00 1.23 2.69 0.00 1.23 2.82 0.00 1.23 2.95 0.00 1.23 3.08 0.00 1.23 3.21 0.00 1.23 3.33 0.00 1.23 3.46 0.00 1.23 3.59 0.00 1.23 3.72 0.00 1.23 3.85 0.00 1.23 3.97 0.00 1.23 4.10 0.00 1.23 4.23 0.00 1.23 4.36 0.00 1.23 4.49 0.00 1.23 4.62 0.00 1.23 4.74 0.00 1.23 4.87 0.00 1.23 5.00 0.00 1.38 0.00 0.00 1.38 0.13 0.00 1.38 0.26 0.00 1.38 0.38 0.00 1.38 0.51 0.00 1.38 0.64 0.00 1.38 0.77 0.00 1.38 0.90 0.00 1.38 1.03 0.00 1.38 1.15 0.00 1.38 1.28 0.00 1.38 1.41 0.00 1.38 1.54 0.00 1.38 1.67 0.00 1.38 1.79 0.00 1.38 1.92 0.00 1.38 2.05 0.00 1.38 2.18 0.00 1.38 2.31 0.00 1.38 2.44 0.00 1.38 2.56 0.00 1.38 2.69 0.00 1.38 2.82 0.00 1.38 2.95 0.00 1.38 3.08 0.00 1.38 3.21 0.00 1.38 3.33 0.00 1.38 3.46 0.00 1.38 3.59 0.00 1.38 3.72 0.00 1.38 3.85 0.00 1.38 3.97 0.00 1.38 4.10 0.00 1.38 4.23 0.00 1.38 4.36 0.00 1.38 4.49 0.00 1.38 4.62 0.00 1.38 4.74 0.00 1.38 4.87 0.00 1.38 5.00 0.00 1.54 0.00 0.00 1.54 0.13 0.00 1.54 0.26 0.00 1.54 0.38 0.00 1.54 0.51 0.00 1.54 0.64 0.00 1.54 0.77 0.00 1.54 0.90 0.00 1.54 1.03 0.00 1.54 1.15 0.00 1.54 1.28 0.00 1.54 1.41 0.00 1.54 1.54 0.00 1.54 1.67 0.00 1.54 1.79 0.00 1.54 1.92 0.00 1.54 2.05 0.00 1.54 2.18 0.00 1.54 2.31 0.00 1.54 2.44 0.00 1.54 2.56 0.00 1.54 2.69 0.00 1.54 2.82 0.00 1.54 2.95 0.00 1.54 3.08 0.00 1.54 3.21 0.00 1.54 3.33 0.00 1.54 3.46 0.00 1.54 3.59 0.00 1.54 3.72 0.00 1.54 3.85 0.00 1.54 3.97 0.00 1.54 4.10 0.00 1.54 4.23 0.00 1.54 4.36 0.00 1.54 4.49 0.00 1.54 4.62 0.00 1.54 4.74 0.00 1.54 4.87 0.00 1.54 5.00 0.00 1.69 0.00 0.00 1.69 0.13 0.00 1.69 0.26 0.00 1.69 0.38 0.00 1.69 0.51 0.00 1.69 0.64 0.00 1.69 0.77 0.00 1.69 0.90 0.00 1.69 1.03 0.00 1.69 1.15 0.00 1.69 1.28 0.00 1.69 1.41 0.00 1.69 1.54 0.00 1.69 1.67 0.00 1.69 1.79 0.00 1.69 1.92 0.00 1.69 2.05 0.00 1.69 2.18 0.00 1.69 2.31 0.00 1.69 2.44 0.00 1.69 2.56 0.00 1.69 2.69 0.00 1.69 2.82 0.00 1.69 2.95 0.00 1.69 3.08 0.00 1.69 3.21 0.00 1.69 3.33 0.00 1.69 3.46 0.00 1.69 3.59 0.00 1.69 3.72 0.00 1.69 3.85 0.00 1.69 3.97 0.00 1.69 4.10 0.00 1.69 4.23 0.00 1.69 4.36 0.00 1.69 4.49 0.00 1.69 4.62 0.00 1.69 4.74 0.00 1.69 4.87 0.00 1.69 5.00 0.00 1.85 0.00 0.00 1.85 0.13 0.00 1.85 0.26 0.00 1.85 0.38 0.00 1.85 0.51 0.00 1.85 0.64 0.00 1.85 0.77 0.00 1.85 0.90 0.00 1.85 1.03 0.00 1.85 1.15 0.00 1.85 1.28 0.00 1.85 1.41 0.00 1.85 1.54 0.00 1.85 1.67 0.00 1.85 1.79 0.00 1.85 1.92 0.00 1.85 2.05 0.00 1.85 2.18 0.00 1.85 2.31 0.00 1.85 2.44 0.00 1.85 2.56 0.00 1.85 2.69 0.00 1.85 2.82 0.00 1.85 2.95 0.00 1.85 3.08 0.00 1.85 3.21 0.00 1.85 3.33 0.00 1.85 3.46 0.00 1.85 3.59 0.00 1.85 3.72 0.00 1.85 3.85 0.00 1.85 3.97 0.00 1.85 4.10 0.00 1.85 4.23 0.00 1.85 4.36 0.00 1.85 4.49 0.00 1.85 4.62 0.00 1.85 4.74 0.00 1.85 4.87 0.00 1.85 5.00 0.00 2.00 0.00 0.00 2.00 0.13 0.00 2.00 0.26 0.00 2.00 0.38 0.00 2.00 0.51 0.00 2.00 0.64 0.00 2.00 0.77 0.00 2.00 0.90 0.00 2.00 1.03 0.00 2.00 1.15 0.00 2.00 1.28 0.00 2.00 1.41 0.00 2.00 1.54 0.00 2.00 1.67 0.00 2.00 1.79 0.00 2.00 1.92 0.00 2.00 2.05 0.00 2.00 2.18 0.00 2.00 2.31 0.00 2.00 2.44 0.00 2.00 2.56 0.00 2.00 2.69 0.00 2.00 2.82 0.00 2.00 2.95 0.00 2.00 3.08 0.00 2.00 3.21 0.00 2.00 3.33 0.00 2.00 3.46 0.00 2.00 3.59 0.00 2.00 3.72 0.00 2.00 3.85 0.00 2.00 3.97 0.00 2.00 4.10 0.00 2.00 4.23 0.00 2.00 4.36 0.00 2.00 4.49 0.00 2.00 4.62 0.00 2.00 4.74 0.00 2.00 4.87 0.00 2.00 5.00 0.00 2.15 0.00 0.00 2.15 0.13 0.00 2.15 0.26 0.00 2.15 0.38 0.00 2.15 0.51 0.00 2.15 0.64 0.00 2.15 0.77 0.00 2.15 0.90 0.00 2.15 1.03 0.00 2.15 1.15 0.00 2.15 1.28 0.00 2.15 1.41 0.00 2.15 1.54 0.00 2.15 1.67 0.00 2.15 1.79 0.00 2.15 1.92 0.00 2.15 2.05 0.00 2.15 2.18 0.00 2.15 2.31 0.00 2.15 2.44 0.00 2.15 2.56 0.00 2.15 2.69 0.00 2.15 2.82 0.00 2.15 2.95 0.00 2.15 3.08 0.00 2.15 3.21 0.00 2.15 3.33 0.00 2.15 3.46 0.00 2.15 3.59 0.00 2.15 3.72 0.00 2.15 3.85 0.00 2.15 3.97 0.00 2.15 4.10 0.00 2.15 4.23 0.00 2.15 4.36 0.00 2.15 4.49 0.00 2.15 4.62 0.00 2.15 4.74 0.00 2.15 4.87 0.00 2.15 5.00 0.00 2.31 0.00 0.00 2.31 0.13 0.00 2.31 0.26 0.00 2.31 0.38 0.00 2.31 0.51 0.00 2.31 0.64 0.00 2.31 0.77 0.00 2.31 0.90 0.00 2.31 1.03 0.00 2.31 1.15 0.00 2.31 1.28 0.00 2.31 1.41 0.00 2.31 1.54 0.00 2.31 1.67 0.00 2.31 1.79 0.00 2.31 1.92 0.00 2.31 2.05 0.00 2.31 2.18 0.00 2.31 2.31 0.00 2.31 2.44 0.00 2.31 2.56 0.00 2.31 2.69 0.00 2.31 2.82 0.00 2.31 2.95 0.00 2.31 3.08 0.00 2.31 3.21 0.00 2.31 3.33 0.00 2.31 3.46 0.00 2.31 3.59 0.00 2.31 3.72 0.00 2.31 3.85 0.00 2.31 3.97 0.00 2.31 4.10 0.00 2.31 4.23 0.00 2.31 4.36 0.00 2.31 4.49 0.00 2.31 4.62 0.00 2.31 4.74 0.00 2.31 4.87 0.00 2.31 5.00 0.00 2.46 0.00 0.00 2.46 0.13 0.00 2.46 0.26 0.00 2.46 0.38 0.00 2.46 0.51 0.00 2.46 0.64 0.00 2.46 0.77 0.00 2.46 0.90 0.00 2.46 1.03 0.00 2.46 1.15 0.00 2.46 1.28 0.00 2.46 1.41 0.00 2.46 1.54 0.00 2.46 1.67 0.00 2.46 1.79 0.00 2.46 1.92 0.00 2.46 2.05 0.00 2.46 2.18 0.00 2.46 2.31 0.0
[...]
POINT_DATA 64000
SCALARS Wave float
LOOKUP_TABLE default
-0.12 -0.11 -0.11 -0.11 -0.11 -0.11 -0.10 -0.10 -0.10 -0.10 -0.10 -0.09 -0.09 -0.09 -0.08 -0.08 -0.08 -0.08 -0.07 -0.07 -0.06 -0.06 -0.06 -0.05 -0.05 -0.05 -0.04 -0.04 -0.03 -0.03 -0.03 -0.03 -0.02 -0.02 -0.02 -0.02 -0.02 -0.02 -0.02 -0.02 -0.10 -0.10 -0.10 -0.09 -0.09 -0.09 -0.09 -0.09 -0.09 -0.08 -0.08 -0.08 -0.08 -0.07 -0.07 -0.07 -0.07 -0.06 -0.06 -0.06 -0.05 -0.05 -0.05 -0.04 -0.04 -0.04 -0.03 -0.03 -0.03 -0.03 -0.02 -0.02 -0.02 -0.02 -0.02 -0.02 -0.02 -0.02 -0.01 -0.01 -0.08 -0.08 -0.08 -0.08 -0.08 -0.08 -0.07 -0.07 -0.07 -0.07 -0.07 -0.07 -0.06 -0.06 -0.06 -0.06 -0.06 -0.05 -0.05 -0.05 -0.05 -0.04 -0.04 -0.04 -0.03 -0.03 -0.03 -0.03 -0.02 -0.02 -0.02 -0.02 -0.02 -0.02 -0.02 -0.01 -0.01 -0.01 -0.01 -0.01 -0.07 -0.07 -0.07 -0.07 -0.06 -0.06 -0.06 -0.06 -0.06 -0.06 -0.06 -0.06 -0.05 -0.05 -0.05 -0.05 -0.05 -0.04 -0.04 -0.04 -0.04 -0.04 -0.03 -0.03 -0.03 -0.03 -0.02 -0.02 -0.02 -0.02 -0.02 -0.02 -0.01 -0.01 -0.01 -0.01 -0.01 -0.01 -0.01 -0.01 -0.06 -0.06 -0.06 -0.05 -0.05 -0.05 -0.05 -0.05 -0.05 -0.05 -0.05 -0.05 -0.04 -0.04 -0.04 -0.04 -0.04 -0.04 -0.03 -0.03 -0.03 -0.03 -0.03 -0.03 -0.02 -0.02 -0.02 -0.02 -0.02 -0.02 -0.01 -0.01 -0.01 -0.01 -0.01 -0.01 -0.01 -0.01 -0.01 -0.01 -0.05 -0.05 -0.05 -0.04 -0.04 -0.04 -0.04 -0.04 -0.04 -0.04 -0.04 -0.04 -0.04 -0.03 -0.03 -0.03 -0.03 -0.03 -0.03 -0.03 -0.03 -0.02 -0.02 -0.02 -0.02 -0.02 -0.02 -0.01 -0.01 -0.01 -0.01 -0.01 -0.01 -0.01 -0.01 -0.01 -0.01 -0.01 -0.01 -0.01 -0.04 -0.04 -0.04 -0.04 -0.04 -0.03 -0.03 -0.03 -0.03 -0.03 -0.03 -0.03 -0.03 -0.03 -0.03 -0.03 -0.02 -0.02 -0.02 -0.02 -0.02 -0.02 -0.02 -0.02 -0.01 -0.01 -0.01 -0.01 -0.01 -0.01 -0.01 -0.01 -0.01 -0.01 -0.01 -0.01 -0.01 -0.01 -0.01 -0.01 -0.03 -0.03 -0.03 -0.03 -0.03 -0.03 -0.03 -0.03 -0.03 -0.03 -0.02 -0.02 -0.02 -0.02 -0.02 -0.02 -0.02 -0.02 -0.02 -0.02 -0.02 -0.01 -0.01 -0.01 -0.01 -0.01 -0.01 -0.01 -0.01 -0.01 -0.01 -0.01 -0.01 -0.01 -0.00 -0.00 -0.00 -0.00 -0.00 -0.00 -0.02 -0.02 -0.02 -0.02 -0.02 -0.02 -0.02 -0.02 -0.02 -0.02 -0.02 -0.02 -0.02 -0.02 -0.02 -0.02 -0.01 -0.01 -0.01 -0.01 -0.01 -0.01 -0.01 -0.01 -0.01 -0.01 -0.01 -0.01 -0.01 -0.01 -0.00 -0.00 -0.00 -0.00 -0.00 -0.00 -0.00 -0.00 -0.00 -0.00 -0.02 -0.02 -0.02 -0.02 -0.02 -0.02 -0.02 -0.02 -0.02 -0.02 -0.01 -0.01 -0.01 -0.01 -0.01 -0.01 -0.01 -0.01 -0.01 -0.01 -0.01 -0.01 -0.01 -0.01 -0.01 -0.01 -0.01 -0.00 -0.00 -0.00 -0.00 -0.00 -0.00 -0.00 -0.00 -0.00 -0.00 -0.00 -0.00 -0.00 -0.01 -0.01 -0.01 -0.01 -0.01 -0.01 -0.01 -0.01 -0.01 -0.01 -0.01 -0.01 -0.01 -0.01 -0.01 -0.01 -0.01 -0.01 -0.01 -0.01 -0.01 -0.01 -0.01 -0.00 -0.00 -0.00 -0.00 -0.00 -0.00 -0.00 -0.00 -0.00 -0.00 -0.00 -0.00 -0.00 -0.00 -0.00 -0.00 -0.00 -0.01 -0.01 -0.01 -0.01 -0.01 -0.01 -0.01 -0.01 -0.01 -0.01 -0.01 -0.01 -0.01 -0.01 -0.01 -0.01 -0.01 -0.00 -0.00 -0.00 -0.00 -0.00 -0.00 -0.00 -0.00 -0.00 -0.00 -0.00 -0.00 -0.00 -0.00 -0.00 -0.00 -0.00 -0.00 0.00 0.00 0.00 0.00 0.00 -0.01 -0.01 -0.01 -0.01 -0.01 -0.01 -0.01 -0.01 -0.01 -0.01 -0.01 -0.00 -0.00 -0.00 -0.00 -0.00 -0.00 -0.00 -0.00 -0.00 -0.00 -0.00 -0.00 -0.00 -0.00 -0.00 -0.00 -0.00 0.00 0.00 0.00 0.00 0.00 0.00 0.00 0.00 0.00 0.00 0.00 0.00 -0.00 -0.00 -0.00 -0.00 -0.00 -0.00 -0.00 -0.00 -0.00 -0.00 -0.00 -0.00 -0.00 -0.00 -0.00 -0.00 -0.00 -0.00 -0.00 -0.00 -0.00 -0.00 0.00 0.00 0.00 0.00 0.00 0.00 0.00 0.00 0.00 0.00 0.00 0.00 0.00 0.00 0.00 0.00 0.00 0.00 -0.00 -0.00 -0.00 -0.00 -0.00 -0.00 -0.00 -0.00 -0.00 -0.00 -0.00 -0.00 -0.00 -0.00 -0.00 0.00 0.00 0.00 0.00 0.00 0.00 0.00 0.00 0.00 0.00 0.00 0.00 0.00 0.00 0.00 0.00 0.00 0.00 0.00 0.00 0.00 0.00 0.00 0.00 0.00 -0.00 -0.00 -0.00 -0.00 -0.00 -0.00 -0.00 -0.00 0.00 0.00 0.00 0.00 0.00 0.00 0.00 0.00 0.00 0.00 0.00 0.00 0.00 0.00 0.00 0.00 0.00 0.00 0.00 0.00 0.00 0.00 0.00 0.00 0.00 0.00 0.00 0.00 0.00 0.00 0.00 0.00 0.00 0.00 0.00 0.00 0.00 0.00 0.00 0.00 0.00 0.00 0.00 0.00 0.00 0.00 0.00 0.00 0.00 0.00 0.00 0.00 0.00 0.00 0.00 0.00 0.00 0.00 0.00 0.00 0.00 0.00 0.00 0.00 0.00 0.00 0.00 0.00 0.00 0.00 0.00 0.00 0.00 0.00 0.00 0.00 0.00 0.00 0.00 0.00 0.00 0.00 0.00 0.00 0.00 0.00 0.00 0.00 0.00 0.00 0.00 0.00 0.00 0.00 0.00 0.00 0.00 0.00 0.00 0.00 0.00 0.00 0.00 0.00 0.00 0.00 0.00 0.00 0.00 0.00 0.00 0.00 0.00 0.00 0.00 0.00 0.00 0.00 0.00 0.00 0.00 0.00 0.00 0.00 0.00 0.00 0.00 0.00 0.00 0.00 0.00 0.00 0.00 0.00 0.00 0.00 0.00 0.00 0.00 0.00 0.00 0.00 0.00 0.00 0.00 0.00 0.00 0.00 0.00 0.00 0.00 0.00 0.00 0.00 0.00 0.00 0.00 0.00 0.00 0.00 0.00 0.00 0.00 0.00 0.00 0.00 0.01 0.01 0.01 0.01 0.01 0.01 0.01 0.01 0.01 0.01 0.01 0.01 0.01 0.01 0.00 0.00 0.00 0.00 0.00 0.00 0.00 0.00 0.00 0.00 0.00 0.00 0.00 0.00 0.00 0.00 0.00 0.00 0.00 0.00 0.00 0.00 0.01 0.01 0.01 0.01 0.01 0.01 0.01 0.01 0.01 0.01 0.01 0.01 0.01 0.01 0.01 0.01 0.01 0.01 0.01 0.01 0.00 0.00 0.00 0.00 0.00 0.00 0.00 0.00 0.00 0.00 0.00 0.00 0.00 0.00 0.00 0.00 0.00 0.01 0.01 0.01 0.01 0.01 0.01 0.01 0.01 0.01 0.01 0.01 0.01 0.01 0.01 0.01 0.01 0.01 0.01 0.01 0.01 0.01 0.01 0.01 0.01 0.01 0.00 0.00 0.00 0.00 0.00 0.00 0.00 0.00 0.00 0.00 0.00 0.00 0.01 0.01 0.01 0.01 0.01 0.01 0.01 0.01 0.01 0.01 0.01 0.01 0.01 0.01 0.01 0.01 0.01 0.01 0.01 0.01 0.01 0.01 0.01 0.01 0.01 0.01 0.01 0.01 0.00 0.00 0.00 0.00 0.00 0.00 0.00 0.00 0.01 0.01 0.01 0.01 0.01 0.01 0.01 0.01 0.01 0.01 0.01 0.01 0.01 0.01 0.01 0.01 0.01 0.01 0.01 0.01 0.01 0.01 0.01 0.01 0.01 0.01 0.01 0.01 0.01 0.01 0.01 0.01 0.01 0.00 0.00 0.00 0.00 0.00 0.00 0.00 0.01 0.01 0.01 0.01 0.01 0.01 0.01 0.01 0.01 0.01 0.01 0.01 0.01 0.01 0.01 0.01 0.01 0.01 0.01 0.01 0.01 0.01 0.01 0.01 0.01 0.01 0.01 0.01 0.01 0.01 0.01 0.01 0.01 0.00 0.00 0.00 0.00 0.00 0.00 0.00 0.01 0.01 0.01 0.01 0.01 0.01 0.01 0.01 0.01 0.01 0.01 0.01 0.01 0.01 0.01 0.01 0.01 0.01 0.01 0.01 0.01 0.01 0.01 0.01 0.01 0.01 0.01 0.01 0.01 0.01 0.01 0.01 0.01 0.00 0.00 0.00 0.00 0.00 0.00 0.00 0.01 0.01 0.01 0.01 0.01 0.01 0.01 0.01 0.01 0.01 0.01 0.01 0.01 0.01 0.01 0.01 0.01 0.01 0.01 0.01 0.01 0.01 0.01 0.01 0.01 0.01 0.01 0.01 0.01 0.01 0.01 0.01 0.01 0.00 0.00 0.00 0.00 0.00 0.00 0.00 0.00 0.00 0.00 0.00 0.01 0.01 0.01 0.01 0.01 0.01 0.01 0.01 0.01 0.01 0.01 0.01 0.01 0.01 0.01 0.01 0.01 0.01 0.01 0.01 0.01 0.01 0.01 0.01 0.01 0.01 0.01 0.01 0.00 0.00 0.00 0.00 0.00 0.00 0.00 0.00 0.00 0.00 0.00 0.00 0.00 0.00 0.01 0.01 0.01 0.01 0.01 0.01 0.01 0.01 0.01 0.01 0.01 0.01 0.01 0.01 0.01 0.01 0.01 0.01 0.01 0.01 0.01 0.01 0.01 0.01 0.01 0.00 0.00 0.00 0.00 0.00 0.00 0.00 0.00 0.00 0.00 0.00 0.00 0.00 0.00 0.00 0.00 0.01 0.01 0.01 0.01 0.01 0.01 0.01 0.01 0.01 0.01 0.01 0.01 0.01 0.01 0.01 0.01 0.01 0.01 0.01 0.01 0.01 0.01 0.01 0.01 0.00 0.00 0.00 0.00 0.00 0.00 0.00 0.00 0.00 0.00 0.00 0.00 0.00 0.00 0.00 0.00 0.00 0.00 0.01 0.01 0.01 0.01 0.01 0.01 0.01 0.01 0.01 0.01 0.01 0.01 0.01 0.01 0.01 0.01 0.01 0.01 0.01 0.01 0.00 0.00 0.00 0.00 0.00 0.00 0.00 0.00 0.00 0.00 0.00 0.00 0.00 0.00 0.00 0.00 0.00 0.00 0.00 0.00 0.00 0.00 0.01 0.01 0.01 0.01 0.01 0.01 0.01 0.01 0.01 0.01 0.01 0.01 0.01 0.01 0.01 0.01 0.01 0.00 0.00 0.00 0.00 0.00 0.00 0.00 0.00 0.00 0.00 0.00 0.00 0.00 0.00 0.00 0.00 0.00 0.00 0.00 0.00 0.00 0.00 0.00 0.00 0.00 0.00 0.00 0.01 0.01 0.01 0.01 0.01 0.01 0.01 0.01 0.01 0.00 0.00 0.00 0.00 0.00 0.00 0.00 0.00 0.00 0.00 0.00 0.00 0.00 0.00 0.00 0.00 0.00 0.00 0.00 0.00 0.00 0.00 0.00 0.00 0.00 0.00 0.00 0.00 0.00 0.00 0.00 0.00 0.00 0.00 0.00 0.00 0.00 0.00 0.00 0.00 0.00 0.00 0.00 0.00 0.00 0.00 0.00 0.00 0.00 0.00 0.00 0.00 0.00 0.00 0.00 0.00 0.00 0.00 0.00 0.00 0.00 0.00 0.00 0.00 0.00 0.00 0.00 0.00 0.00 0.00 0.00 0.00 0.00 0.00 0.00 0.00 0.00 0.00 0.00 0.00 0.00 0.00 0.00 0.00 0.00 0.00 0.00 0.00 0.00 0.00 0.00 0.00 0.00 0.00 0.00 0.00 0.00 0.00 0.00 0.00 0.00 0.00 0.00 0.00 0.00 0.00 0.00 0.00 0.00 0.00 0.00 0.00 0.00 0.00 0.00 0.00 0.00 0.00 0.00 0.00 0.00 0.00 0.00 0.00 0.00 0.00 0.00 0.00 0.00 0.00 0.00 0.00 0.00 0.00 0.00 0.00 0.00 0.00 0.00 0.00 0.00 0.00 0.00 0.00 0.00 0.00 0.00 0.00 0.00 0.00 0.00 0.00 0.00 0.00 0.00 0.00 0.00 0.00 0.00 0.00 0.00 0.00 0.00 0.00 0.00 0.00 0.00 0.00 0.00 0.00 0.00 0.00 0.00 0.00 0.00 0.00 0.00 0.00 0.00 0.00 0.00 0.00 0.00 0.00 0.00 0.00 0.00 0.00 0.00 0.00 0.00 0.00 0.00 0.00 0.00 0.00 0.00 0.00 0.00 0.00 0.00 0.00 0.00 0.00 0.00 0.00 0.00 0.00 0.00 0.00 0.00 0.00 0.00 0.00 0.00 0.00 0.00 0.00 0.00 0.00 0.00 0.00 0.00 0.00 0.00 0.00 0.00 0.00 0.00 0.00 0.00 0.00 0.00 0.00 0.00 0.00 0.00 0.00 0.00 0.00 0.00 0.00 0.00 0.00 0.00 0.00 0.00 0.00 0.00 0.00 0.00 0.00 0.00 0.00 0.00 0.00 0.00 0.00 0.00 0.00 0.00 0.00 0.00 0.00 0.00 0.00 0.00 0.00 0.00 0.00 0.00 0.00 0.00 0.00 0.00 0.00 0.00 0.00 0.00 0.00 0.00 0.00 0.00 0.00 0.00 0.00 0.00 0.00 0.00 0.00 0.00 0.00 0.00 0.00 0.00 0.00 -0.12 -0.11 -0.11 -0.11 -0.11 -0.11 -0.10 -0.10 -0.10 -0.10 -0.10 -0.09 -0.09 -0.09 -0.09 -0.08 -0.08 -0.08 -0.07 -0.07 -0.06 -0.06 -0.06 -0.05 -0.05 -0.04 -0.04 -0.04 -0.03 -0.03 -0.03 -0.03 -0.02 -0.02 -0.02 -0.02 -0.02 -0.02 -0.02 -0.02 -0.10 -0.10 -0.10 -0.09 -0.09 -0.09 -0.09 -0.09 -0.09 -0.08 -0.08 -0.08 -0.08 -0.07 -0.07 -0.07 -0.07 -0.06 -0.06 -0.06 -0.05 -0.05 -0.05 -0.04 -0.04 -0.04 -0.03 -0.03 -0.03 -0.03 -0.02 -0.02 -0.02 -0.02 -0.02 -0.02 -0.02 -0.02 -0.01 -0.01 -0.08 -0.08 -0.08 -0.08 -0.08 -0.08 -0.08 -0.07 -0.07 -0.07 -0.07 -0.07 -0.06 -0.06 -0.06 -0.06 -0.06 -0.05 -0.05 -0.05 -0.05 -0.04 -0.04 -0.04 -0.03 -0.03 -0.03 -0.03 -0.02 -0.02 -0.02 -0.02 -0.02 -0.02 -0.02 -0.01 -0.01 -0.01 -0.01 -0.01 -0.07 -0.07 -0.07 -0.07 -0.06 -0.06 -0.06 -0.06 -0.06 -0.06 -0.06 -0.06 -0.05 -0.05 -0.05 -0.05 -0.05 -0.04 -0.04 -0.04 -0.04 -0.04 -0.03 -0.03 -0.03 -0.03 -0.02 -0.02 -0.02 -0.02 -0.02 -0.02 -0.01 -0.01 -0.01 -0.01 -0.01 -0.01 -0.01 -0.01 -0.06 -0.06 -0.06 -0.05 -0.05 -0.05 -0.05 -0.05 -0.05 -0.05 -0.05 -0.05 -0.04 -0.04 -0.04 -0.04 -0.04 -0.04 -0.03 -0.03 -0.03 -0.03 -0.03 -0.03 -0.02 -0.02 -0.02 -0.02 -0.02 -0.02 -0.01 -0.01 -0.01 -0.01 -0.01 -0.01 -0.01 -0.01 -0.01 -0.01 -0.05 -0.05 -0.05 -0.04 -0.04 -0.04 -0.04 -0.04 -0.04 -0.04 -0.04 -0.04 -0.04 -0.03 -0.03 -0.03 -0.03 -0.03 -0.03 -0.03 -0.03 -0.02 -0.02 -0.02 -0.02 -0.02 -0.02 -0.01 -0.01 -0.01 -0.01 -0.01 -0.01 -0.01 -0.01 -0.01 -0.01 -0.01 -0.01 -0.01 -0.04 -0.04 -0.04 -0.04 -0.04 -0.03 -0.03 -0.03 -0.03 -0.03 -0.03 -0.03 -0.03 -0.03 -0.03 -0.03 -0.02 -0.02 -0.02 -0.02 -0.02 -0.02 -0.02 -0.02 -0.01 -0.01 -0.01 -0.01 -0.01 -0.01 -0.01 -0.01 -0.01 -0.01 -0.01 -0.01 -0.01 -0.01 -0.01 -0.01 -0.03 -0.03 -0.03 -0.03 -0.03 -0.03 -0.03 -0.03 -0.03 -0.03 -0.02 -0.02 -0.02 -0.02 -0.02 -0.02 -0.02 -0.02 -0.02 -0.02 -0.02 -0.01 -0.01 -0.01 -0.01 -0.01 -0.01 -0.01 -0.01 -0.01 -0.01 -0.01 -0.01 -0.01 -0.00 -0.00 -0.00 -0.00 -0.00 -0.00 -0.02 -0.02 -0.02 -0.02 -0.02 -0.02 -0.02 -0.02 -0.02 -0.02 -0.02 -0.02 -0.02 -0.02 -0.02 -0.02 -0.01 -0.01 -0.01 -0.01 -0.01 -0.01 -0.01 -0.01 -0.01 -0.01 -0.01 -0.01 -0.01 -0.01 -0.00 -0.00 -0.00 -0.00 -0.00 -0.00 -0.00 -0.00 -0.00 -0.00 -0.02 -0.02 -0.02 -0.02 -0.02 -0.02 -0.02 -0.02 -0.02 -0.02 -0.01 -0.01 -0.01 -0.01 -0.01 -0.01 -0.01 -0.01 -0.01 -0.01 -0.01 -0.01 -0.01 -0.01 -0.01 -0.01 -0.01 -0.00 -0.00 -0.00 -0.00 -0.00 -0.00 -0.00 -0.00 -0.00 -0.00 -0.00 -0.00 -0.00 -0.01 -0.01 -0.01 -0.01 -0.01 -0.01 -0.01 -0.01 -0.01 -0.01 -0.01 -0.01 -0.01 -0.01 -0.01 -0.01 -0.01 -0.01 -0.01 -0.01 -0.01 -0.01 -0.01 -0.00 -0.00 -0.00 -0.00 -0.00 -0.00 -0.00 -0.00 -0.00 -0.00 -0.00 -0.00 -0.00 -0.00 -0.00 -0.00 -0.00 -0.01 -0.01 -0.01 -0.01 -0.01 -0.01 -0.01 -0.01 -0.01 -0.01 -0.01 -0.01 -0.01 -0.01 -0.01 -0.01 -0.01 -0.00 -0.00 -0.00 -0.00 -0.00 -0.00 -0.00 -0.00 -0.00 -0.00 -0.00 -0.00 -0.00 -0.00 -0.00 -0.00 -0.00 -0.00 0.00 0.00 0.00 0.00 0.00 -0.01 -0.01 -0.01 -0.01 -0.01 -0.01 -0.01 -0.01 -0.01 -0.01 -0.01 -0.00 -0.00 -0.00 -0.00 -0.00 -0.00 -0.00 -0.00 -0.00 -0.00 -0.00 -0.00 -0.00 -0.00 -0.00 -0.00 -0.00 0.00 0.00 0.00 0.00 0.00 0.00 0.00 0.00 0.00 0.00 0.00 0.00 -0.00 -0.00 -0.00 -0.00 -0.00 -0.00 -0.00 -0.00 -0.00 -0.00 -0.00 -0.00 -0.00 -0.00 -0.00 -0.00 -0.00 -0.00 -0.00 -0.00 -0.00 -0.00 0.00 0.00 0.00 0.00 0.00 0.00 0.00 0.00 0.00 0.00 0.00 0.00 0.00 0.00 0.00 0.00 0.00 0.00 -0.00 -0.00 -0.00 -0.00 -0.00 -0.00 -0.00 -0.00 -0.00 -0.00 -0.00 -0.00 -0.00 -0.00 -0.00 0.00 0.00 0.00 0.00 0.00 0.00 0.00 0.00 0.00 0.00 0.00 0.00 0.00 0.00 0.00 0.00 0.00 0.00 0.00 0.00 0.00 0.00 0.00 0.00 0.00 -0.00 -0.00 -0.00 -0.00 -0.00 -0.00 -0.00 -0.00 0.00 0.00 0.00 0.00 0.00 0.00 0.00 0.00 0.00 0.00 0.00 0.00 0.00 0.00 0.00 0.00 0.00 0.00 0.00 0.00 0.00 0.00 0.00 0.00 0.00 0.00 0.00 0.00 0.00 0.00 0.00 0.00 0.00 0.00 0.00 0.00 0.00 0.00 0.00 0.00 0.00 0.00 0.00 0.00 0.00 0.00 0.00 0.00 0.00 0.00 0.00 0.00 0.00 0.00 0.00 0.00 0.00 0.00 0.00 0.00 0.00 0.00 0.00 0.00 0.00 0.00 0.00 0.00 0.00 0.00 0.00 0.00 0.00 0.00 0.00 0.00 0.00 0.00 0.00 0.00 0.00 0.00 0.00 0.00 0.00 0.00 0.00 0.00 0.00 0.00 0.00 0.00 0.00 0.00 0.00 0.00 0.00 0.00 0.00 0.00 0.00 0.00 0.00 0.00 0.00 0.00 0.00 0.00 0.00 0.00 0.00 0.00 0.00 0.00 0.00 0.00 0.00 0.00 0.00 0.00 0.00 0.00 0.00 0.00 0.00 0.00 0.00 0.00 0.00 0.00 0.00 0.00 0.00 0.00 0.00 0.00 0.00 0.00 0.00 0.00 0.00 0.00 0.00 0.00 0.00 0.00 0.00 0.00 0.00 0.00 0.00 0.00 0.00 0.00 0.00 0.00 0.00 0.00 0.00 0.00 0.00 0.00 0.00 0.00 0.00 0.00 0.01 0.01 0.01 0.01 0.01 0.01 0.01 0.01 0.01 0.01 0.01 0.01 0.01 0.01 0.00 0.00 0.00 0.00 0.00 0.00 0.00 0.00 0.00 0.00 0.00 0.00 0.00 0.00 0.00 0.00 0.00 0.00 0.00 0.00 0.00 0.00 0.01 0.01 0.01 0.01 0.01 0.01 0.01 0.01 0.01 0.01 0.01 0.01 0.01 0.01 0.01 0.01 0.01 0.01 0.01 0.01 0.00 0.00 0.00 0.00 0.00 0.00 0.00 0.00 0.00 0.00 0.00 0.00 0.00 0.00 0.00 0.00 0.00 0.01 0.01 0.01 0.01 0.01 0.01 0.01 0.01 0.01 0.01 0.01 0.01 0.01 0.01 0.01 0.01 0.01 0.01 0.01 0.01 0.01 0.01 0.01 0.01 0.01 0.00 0.00 0.00 0.00 0.00 0.00 0.00 0.00 0.00 0.00 0.00 0.00 0.01 0.01 0.01 0.01 0.01 0.01 0.01 0.01 0.01 0.01 0.01 0.01 0.01 0.01 0.01 0.01 0.01 0.01 0.01 0.01 0.01 0.01 0.01 0.01 0.01 0.01 0.01 0.01 0.01 0.00 0.00 0.00 0.00 0.00 0.00 0.00 0.01 0.01 0.01 0.01 0.01 0.01 0.01 0.01 0.01 0.01 0.01 0.01 0.01 0.01 0.01 0.01 0.01 0.01 0.01 0.01 0.01 0.01 0.01 0.01 0.01 0.01 0.01 0.01 0.01 0.01 0.01 0.01 0.01 0.00 0.00 0.00 0.00 0.00 0.00 0.00 0.01 0.01 0.01 0.01 0.01 0.01 0.01 0.01 0.01 0.01 0.01 0.01 0.01 0.01 0.01 0.01 0.01 0.01 0.01 0.01 0.01 0.01 0.01 0.01 0.01 0.01 0.01 0.01 0.01 0.01 0.01 0.01 0.01 0.00 0.00 0.00 0.00 0.00 0.00 0.00 0.01 0.01 0.01 0.01 0.01 0.01 0.01 0.01 0.01 0.01 0.01 0.01 0.01 0.01 0.01 0.01 0.01 0.01 0.01 0.01 0.01 0.01 0.01 0.01 0.01 0.01 0.01 0.01 0.01 0.01 0.01 0.01 0.01 0.00 0.00 0.00 0.00 0.00 0.00 0.00 0.01 0.01 0.01 0.01 0.01 0.01 0.01 0.01 0.01 0.01 0.01 0.01 0.01 0.01 0.01 0.01 0.01 0.01 0.01 0.01 0.01 0.01 0.01 0.01 0.01 0.01 0.01 0.01 0.01 0.01 0.01 0.01 0.01 0.00 0.00 0.00 0.00 0.00 0.00 0.00 0.00 0.00 0.00 0.00 0.01 0.01 0.01 0.01 0.01 0.01 0.01 0.01 0.01 0.01 0.01 0.01 0.01 0.01 0.01 0.01 0.01 0.01 0.01 0.01 0.01 0.01 0.01 0.01 0.01 0.01 0.01 0.01 0.00 0.00 0.00 0.00 0.00 0.00 0.00 0.00 0.00 0.00 0.00 0.00 0.00 0.00 0.01 0.01 0.01 0.01 0.01 0.01 0.01 0.01 0.01 0.01 0.01 0.01 0.01 0.01 0.01 0.01 0.01 0.01 0.01 0.01 0.01 0.01 0.01 0.01 0.01 0.00 0.00 0.00 0.00 0.00 0.00 0.00 0.00 0.00 0.00 0.00 0.00 0.00 0.00 0.00 0.00 0.01 0.01 0.01 0.01 0.01 0.01 0.01 0.01 0.01 0.01 0.01 0.01 0.01 0.01 0.01 0.01 0.01 0.01 0.01 0.01 0.01 0.01 0.01 0.01 0.00 0.00 0.00 0.00 0.00 0.00 0.00 0.00 0.00 0.00 0.00 0.00 0.00 0.00 0.00 0.00 0.00 0.00 0.01 0.01 0.01 0.01 0.01 0.01 0.01 0.01 0.01 0.01 0.01 0.01 0.01 0.01 0.01 0.01 0.01 0.01 0.01 0.01 0.01 0.00 0.00 0.00 0.00 0.00 0.00 0.00 0.00 0.00 0.00 0.00 0.00 0.00 0.00 0.00 0.00 0.00 0.00 0.00 0.00 0.00 0.01 0.01 0.01 0.01 0.01 0.01 0.01 0.01 0.01 0.01 0.01 0.01 0.01 0.01 0.01 0.01 0.01 0.00 0.00 0.00 0.00 0.00 0.00 0.00 0.00 0.00 0.00 0.00 0.00 0.00 0.00 0.00 0.00 0.00 0.00 0.00 0.00 0.00 0.00 0.00 0.00 0.00 0.01 0.01 0.01 0.01 0.01 0.01 0.01 0.01 0.01 0.01 0.01 0.01 0.01 0.00 0.00 0.00 0.00 0.00 0.00 0.00 0.00 0.00 0.00 0.00 0.00 0.00 0.00 0.00 0.00 0.00 0.00 0.00 0.00 0.00 0.00 0.00 0.00 0.00 0.00 0.00 0.00 0.00 0.00 0.00 0.00 0.00 0.00 0.00 0.00 0.00 0.00 0.00 0.00 0.00 0.00 0.00 0.00 0.00 0.00 0.00 0.00 0.00 0.00 0.00 0.00 0.00 0.00 0.00 0.00 0.00 0.00 0.00 0.00 0.00 0.00 0.00 0.00 0.00 0.00 0.00 0.00 0.00 0.00 0.00 0.00 0.00 0.00 0.00 0.00 0.00 0.00 0.00 0.00 0.00 0.00 0.00 0.00 0.00 0.00 0.00 0.00 0.00 0.00 0.00 0.00 0.00 0.00 0.00 0.00 0.00 0.00 0.00 0.00 0.00 0.00 0.00 0.00 0.00 0.00 0.00 0.00 0.00 0.00 0.00 0.00 0.00 0.00 0.00 0.00 0.00 0.00 0.00 0.00 0.00 0.00 0.00 0.00 0.00 0.00 0.00 0.00 0.00 0.00 0.00 0.00 0.00 0.00 0.00 0.00 0.00 0.00 0.00 0.00 0.00 0.00 0.00 0.00 0.00 0.00 0.00 0.00 0.00 0.00 0.00 0.00 0.00 0.00 0.00 0.00 0.00 0.00 0.00 0.00 0.00 0.00 0.00 0.00 0.00 0.00 0.00 0.00 0.00 0.00 0.00 0.00 0.00 0.00 0.00 0.00 0.00 0.00 0.00 0.00 0.00 0.00 0.00 0.00 0.00 0.00 0.00 0.00 0.00 0.00 0.00 0.00 0.00 0.00 0.00 0.00 0.00 0.00 0.00 0.00 0.00 0.00 0.00 0.00 0.00 0.00 0.00 0.00 0.00 0.00 0.00 0.00 0.00 0.00 0.00 0.00 0.00 0.00 0.00 0.00 0.00 0.00 0.00 0.00 0.00 0.00 0.00 0.00 0.00 0.00 0.00 0.00 0.00 0.00 0.00 0.00 0.00 0.00 0.00 0.00 0.00 0.00 0.00 0.00 0.00 0.00 0.00 0.00 0.00 0.00 0.00 0.00 0.00 0.00 0.00 0.00 0.00 0.00 0.00 0.00 0.00 0.00 0.00 0.00 0.00 0.00 0.00 0.00 0.00 0.00 0.00 0.00 0.00 0.00 0.00 0.00 0.00 0.00 0.00 0.00 0.00 0.00 0.00 0.00 0.00 0.00 0.00 0.00 0.00 0.00 0.00 0.00 0.00 0.00 -0.12 -0.11 -0.11 -0.11 -0.11 -0.11 -0.11 -0.10 -0.10 -0.10 -0.10 -0.09 -0.09 -0.09 -0.09 -0.08 -0.08 -0.08 -0.07 -0.07 -0.07 -0.06 -0.06 -0.05 -0.05 -0.05 -0.04 -0.04 -0.03 -0.03 -0.03 -0.03 -0.02 -0.02 -0.02 -0.02 -0.02 -0.02 -0.02 -0.02 -0.10 -0.10 -0.10 -0.09 -0.09 -0.09 -0.09 -0.09 -0.09 -0.08 -0.08 -0.08 -0.08 -0.08 -0.07 -0.07 -0.07 -0.06 -0.06 -0.06 -0.06 -0.05 -0.05 -0.05 -0.04 -0.04 -0.04 -0.03 -0.03 -0.03 -0.02 -0.02 -0.02 -0.02 -0.02 -0.02 -0.02 -0.02 -0.01 -0.01 -0.08 -0.08 -0.08 -0.08 -0.08 -0.08 -0.08 -0.07 -0.07 -0.07 -0.07 -0.07 -0.07 -0.06 -0.06 -0.06 -0.06 -0.05 -0.05 -0.05 -0.05 -0.04 -0.04 -0.04 -0.03 -0.03 -0.03 -0.03 -0.02 -0.02 -0.02 -0.02 -0.02 -0.02 -0.01 -0.01 -0.01 -0.01 -0.01 -0.01 -0.07 -0.07 -0.07 -0.07 -0.07 -0.06 -0.06 -0.06 -0.06 -0.06 -0.06 -0.06 -0.05 -0.05 -0.05 -0.05 -0.05 -0.05 -0.04 -0.04 -0.04 -0.04 -0.03 -0.03 -0.03 -0.03 -0.02 -0.02 -0.02 -0.02 -0.02 -0.02 -0.01 -0.01 -0.01 -0.01 -0.01 -0.01 -0.01 -0.01 -0.06 -0.06 -0.06 -0.05 -0.05 -0.05 -0.05 -0.05 -0.05 -0.05 -0.05 -0.05 -0.04 -0.04 -0.04 -0.04 -0.04 -0.04 -0.04 -0.03 -0.03 -0.03 -0.03 -0.03 -0.02 -0.02 -0.02 -0.02 -0.02 -0.02 -0.01 -0.01 -0.01 -0.01 -0.01 -0.01 -0.01 -0.01 -0.01 -0.01 -0.05 -0.05 -0.05 -0.04 -0.04 -0.04 -0.04 -0.04 -0.04 -0.04 -0.04 -0.04 -0.04 -0.03 -0.03 -0.03 -0.03 -0.03 -0.03 -0.03 -0.03 -0.02 -0.02 -0.02 -0.02 -0.02 -0.02 -0.01 -0.01 -0.01 -0.01 -0.01 -0.01 -0.01 -0.01 -0.01 -0.01 -0.01 -0.01 -0.01 -0.04 -0.04 -0.04 -0.04 -0.04 -0.03 -0.03 -0.03 -0.03 -0.03 -0.03 -0.03 -0.03 -0.03 -0.03 -0.03 -0.02 -0.02 -0.02 -0.02 -0.02 -0.02 -0.02 -0.02 -0.01 -0.01 -0.01 -0.01 -0.01 -0.01 -0.01 -0.01 -0.01 -0.01 -0.01 -0.01 -0.01 -0.01 -0.01 -0.01 -0.03 -0.03 -0.03 -0.03 -0.03 -0.03 -0.03 -0.03 -0.03 -0.03 -0.02 -0.02 -0.02 -0.02 -0.02 -0.02 -0.02 -0.02 -0.02 -0.02 -0.02 -0.01 -0.01 -0.01 -0.01 -0.01 -0.01 -0.01 -0.01 -0.01 -0.01 -0.01 -0.01 -0.01 -0.00 -0.00 -0.00 -0.00 -0.00 -0.00 -0.02 -0.02 -0.02 -0.02 -0.02 -0.02 -0.02 -0.02 -0.02 -0.02 -0.02 -0.02 -0.02 -0.02 -0.02 -0.02 -0.01 -0.01 -0.01 -0.01 -0.01 -0.01 -0.01 -0.01 -0.01 -0.01 -0.01 -0.01 -0.01 -0.01 -0.00 -0.00 -0.00 -0.00 -0.00 -0.00 -0.00 -0.00 -0.00 -0.00 -0.02 -0.02 -0.02 -0.02 -0.02 -0.02 -0.02 -0.02 -0.02 -0.02 -0.01 -0.01 -0.01 -0.01 -0.01 -0.01 -0.01 -0.01 -0.01 -0.01 -0.01 -0.01 -0.01 -0.01 -0.01 -0.01 -0.01 -0.00 -0.00 -0.00 -0.00 -0.00 -0.00 -0.00 -0.00 -0.00 -0.00 -0.00 -0.00 -0.00 -0.01 -0.01 -0.01 -0.01 -0.01 -0.01 -0.01 -0.01 -0.01 -0.01 -0.01 -0.01 -0.01 -0.01 -0.01 -0.01 -0.01 -0.01 -0.01 -0.01 -0.01 -0.01 -0.01 -0.00 -0.00 -0.00 -0.00 -0.00 -0.00 -0.00 -0.00 -0.00 -0.00 -0.00 -0.00 -0.00 -0.00 -0.00 -0.00 -0.00 -0.01 -0.01 -0.01 -0.01 -0.01 -0.01 -0.01 -0.01 -0.01 -0.01 -0.01 -0.01 -0.01 -0.01 -0.01 -0.01 -0.01 -0.00 -0.00 -0.00 -0.00 -0.00 -0.00 -0.00 -0.00 -0.00 -0.00 -0.00 -0.00 -0.00 -0.00 -0.00 -0.00 -0.00 -0.