# vtk DataFile Version 2.0
VTK from Matlab
ASCII
DATASET STRUCTURED_GRID
DIMENSIONS 15 15 15
POINTS 3375 float
-2.00 -2.00 -2.00 -2.00 -2.00 -1.71 -2.00 -2.00 -1.43 -2.00 -2.00 -1.14 -2.00 -2.00 -0.86 -2.00 -2.00 -0.57 -2.00 -2.00 -0.29 -2.00 -2.00 0.00 -2.00 -2.00 0.29 -2.00 -2.00 0.57 -2.00 -2.00 0.86 -2.00 -2.00 1.14 -2.00 -2.00 1.43 -2.00 -2.00 1.71 -2.00 -2.00 2.00 -2.00 -1.71 -2.00 -2.00 -1.71 -1.71 -2.00 -1.71 -1.43 -2.00 -1.71 -1.14 -2.00 -1.71 -0.86 -2.00 -1.71 -0.57 -2.00 -1.71 -0.29 -2.00 -1.71 0.00 -2.00 -1.71 0.29 -2.00 -1.71 0.57 -2.00 -1.71 0.86 -2.00 -1.71 1.14 -2.00 -1.71 1.43 -2.00 -1.71 1.71 -2.00 -1.71 2.00 -2.00 -1.43 -2.00 -2.00 -1.43 -1.71 -2.00 -1.43 -1.43 -2.00 -1.43 -1.14 -2.00 -1.43 -0.86 -2.00 -1.43 -0.57 -2.00 -1.43 -0.29 -2.00 -1.43 0.00 -2.00 -1.43 0.29 -2.00 -1.43 0.57 -2.00 -1.43 0.86 -2.00 -1.43 1.14 -2.00 -1.43 1.43 -2.00 -1.43 1.71 -2.00 -1.43 2.00 -2.00 -1.14 -2.00 -2.00 -1.14 -1.71 -2.00 -1.14 -1.43 -2.00 -1.14 -1.14 -2.00 -1.14 -0.86 -2.00 -1.14 -0.57 -2.00 -1.14 -0.29 -2.00 -1.14 0.00 -2.00 -1.14 0.29 -2.00 -1.14 0.57 -2.00 -1.14 0.86 -2.00 -1.14 1.14 -2.00 -1.14 1.43 -2.00 -1.14 1.71 -2.00 -1.14 2.00 -2.00 -0.86 -2.00 -2.00 -0.86 -1.71 -2.00 -0.86 -1.43 -2.00 -0.86 -1.14 -2.00 -0.86 -0.86 -2.00 -0.86 -0.57 -2.00 -0.86 -0.29 -2.00 -0.86 0.00 -2.00 -0.86 0.29 -2.00 -0.86 0.57 -2.00 -0.86 0.86 -2.00 -0.86 1.14 -2.00 -0.86 1.43 -2.00 -0.86 1.71 -2.00 -0.86 2.00 -2.00 -0.57 -2.00 -2.00 -0.57 -1.71 -2.00 -0.57 -1.43 -2.00 -0.57 -1.14 -2.00 -0.57 -0.86 -2.00 -0.57 -0.57 -2.00 -0.57 -0.29 -2.00 -0.57 0.00 -2.00 -0.57 0.29 -2.00 -0.57 0.57 -2.00 -0.57 0.86 -2.00 -0.57 1.14 -2.00 -0.57 1.43 -2.00 -0.57 1.71 -2.00 -0.57 2.00 -2.00 -0.29 -2.00 -2.00 -0.29 -1.71 -2.00 -0.29 -1.43 -2.00 -0.29 -1.14 -2.00 -0.29 -0.86 -2.00 -0.29 -0.57 -2.00 -0.29 -0.29 -2.00 -0.29 0.00 -2.00 -0.29 0.29 -2.00 -0.29 0.57 -2.00 -0.29 0.86 -2.00 -0.29 1.14 -2.00 -0.29 1.43 -2.00 -0.29 1.71 -2.00 -0.29 2.00 -2.00 0.00 -2.00 -2.00 0.00 -1.71 -2.00 0.00 -1.43 -2.00 0.00 -1.14 -2.00 0.00 -0.86 -2.00 0.00 -0.57 -2.00 0.00 -0.29 -2.00 0.00 0.00 -2.00 0.00 0.29 -2.00 0.00 0.57 -2.00 0.00 0.86 -2.00 0.00 1.14 -2.00 0.00 1.43 -2.00 0.00 1.71 -2.00 0.00 2.00 -2.00 0.29 -2.00 -2.00 0.29 -1.71 -2.00 0.29 -1.43 -2.00 0.29 -1.14 -2.00 0.29 -0.86 -2.00 0.29 -0.57 -2.00 0.29 -0.29 -2.00 0.29 0.00 -2.00 0.29 0.29 -2.00 0.29 0.57 -2.00 0.29 0.86 -2.00 0.29 1.14 -2.00 0.29 1.43 -2.00 0.29 1.71 -2.00 0.29 2.00 -2.00 0.57 -2.00 -2.00 0.57 -1.71 -2.00 0.57 -1.43 -2.00 0.57 -1.14 -2.00 0.57 -0.86 -2.00 0.57 -0.57 -2.00 0.57 -0.29 -2.00 0.57 0.00 -2.00 0.57 0.29 -2.00 0.57 0.57 -2.00 0.57 0.86 -2.00 0.57 1.14 -2.00 0.57 1.43 -2.00 0.57 1.71 -2.00 0.57 2.00 -2.00 0.86 -2.00 -2.00 0.86 -1.71 -2.00 0.86 -1.43 -2.00 0.86 -1.14 -2.00 0.86 -0.86 -2.00 0.86 -0.57 -2.00 0.86 -0.29 -2.00 0.86 0.00 -2.00 0.86 0.29 -2.00 0.86 0.57 -2.00 0.86 0.86 -2.00 0.86 1.14 -2.00 0.86 1.43 -2.00 0.86 1.71 -2.00 0.86 2.00 -2.00 1.14 -2.00 -2.00 1.14 -1.71 -2.00 1.14 -1.43 -2.00 1.14 -1.14 -2.00 1.14 -0.86 -2.00 1.14 -0.57 -2.00 1.14 -0.29 -2.00 1.14 0.00 -2.00 1.14 0.29 -2.00 1.14 0.57 -2.00 1.14 0.86 -2.00 1.14 1.14 -2.00 1.14 1.43 -2.00 1.14 1.71 -2.00 1.14 2.00 -2.00 1.43 -2.00 -2.00 1.43 -1.71 -2.00 1.43 -1.43 -2.00 1.43 -1.14 -2.00 1.43 -0.86 -2.00 1.43 -0.57 -2.00 1.43 -0.29 -2.00 1.43 0.00 -2.00 1.43 0.29 -2.00 1.43 0.57 -2.00 1.43 0.86 -2.00 1.43 1.14 -2.00 1.43 1.43 -2.00 1.43 1.71 -2.00 1.43 2.00 -2.00 1.71 -2.00 -2.00 1.71 -1.71 -2.00 1.71 -1.43 -2.00 1.71 -1.14 -2.00 1.71 -0.86 -2.00 1.71 -0.57 -2.00 1.71 -0.29 -2.00 1.71 0.00 -2.00 1.71 0.29 -2.00 1.71 0.57 -2.00 1.71 0.86 -2.00 1.71 1.14 -2.00 1.71 1.43 -2.00 1.71 1.71 -2.00 1.71 2.00 -2.00 2.00 -2.00 -2.00 2.00 -1.71 -2.00 2.00 -1.43 -2.00 2.00 -1.14 -2.00 2.00 -0.86 -2.00 2.00 -0.57 -2.00 2.00 -0.29 -2.00 2.00 0.00 -2.00 2.00 0.29 -2.00 2.00 0.57 -2.00 2.00 0.86 -2.00 2.00 1.14 -2.00 2.00 1.43 -2.00 2.00 1.71 -2.00 2.00 2.00 -1.71 -2.00 -2.00 -1.71 -2.00 -1.71 -1.71 -2.00 -1.43 -1.71 -2.00 -1.14 -1.71 -2.00 -0.86 -1.71 -2.00 -0.57 -1.71 -2.00 -0.29 -1.71 -2.00 0.00 -1.71 -2.00 0.29 -1.71 -2.00 0.57 -1.71 -2.00 0.86 -1.71 -2.00 1.14 -1.71 -2.00 1.43 -1.71 -2.00 1.71 -1.71 -2.00 2.00 -1.71 -1.71 -2.00 -1.71 -1.71 -1.71 -1.71 -1.71 -1.43 -1.71 -1.71 -1.14 -1.71 -1.71 -0.86 -1.71 -1.71 -0.57 -1.71 -1.71 -0.29 -1.71 -1.71 0.00 -1.71 -1.71 0.29 -1.71 -1.71 0.57 -1.71 -1.71 0.86 -1.71 -1.71 1.14 -1.71 -1.71 1.43 -1.71 -1.71 1.71 -1.71 -1.71 2.00 -1.71 -1.43 -2.00 -1.71 -1.43 -1.71 -1.71 -1.43 -1.43 -1.71 -1.43 -1.14 -1.71 -1.43 -0.86 -1.71 -1.43 -0.57 -1.71 -1.43 -0.29 -1.71 -1.43 0.00 -1.71 -1.43 0.29 -1.71 -1.43 0.57 -1.71 -1.43 0.86 -1.71 -1.43 1.14 -1.71 -1.43 1.43 -1.71 -1.43 1.71 -1.71 -1.43 2.00 -1.71 -1.14 -2.00 -1.71 -1.14 -1.71 -1.71 -1.14 -1.43 -1.71 -1.14 -1.14 -1.71 -1.14 -0.86 -1.71 -1.14 -0.57 -1.71 -1.14 -0.29 -1.71 -1.14 0.00 -1.71 -1.14 0.29 -1.71 -1.14 0.57 -1.71 -1.14 0.86 -1.71 -1.14 1.14 -1.71 -1.14 1.43 -1.71 -1.14 1.71 -1.71 -1.14 2.00 -1.71 -0.86 -2.00 -1.71 -0.86 -1.71 -1.71 -0.86 -1.43 -1.71 -0.86 -1.14 -1.71 -0.86 -0.86 -1.71 -0.86 -0.57 -1.71 -0.86 -0.29 -1.71 -0.86 0.00 -1.71 -0.86 0.29 -1.71 -0.86 0.57 -1.71 -0.86 0.86 -1.71 -0.86 1.14 -1.71 -0.86 1.43 -1.71 -0.86 1.71 -1.71 -0.86 2.00 -1.71 -0.57 -2.00 -1.71 -0.57 -1.71 -1.71 -0.57 -1.43 -1.71 -0.57 -1.14 -1.71 -0.57 -0.86 -1.71 -0.57 -0.57 -1.71 -0.57 -0.29 -1.71 -0.57 0.00 -1.71 -0.57 0.29 -1.71 -0.57 0.57 -1.71 -0.57 0.86 -1.71 -0.57 1.14 -1.71 -0.57 1.43 -1.71 -0.57 1.71 -1.71 -0.57 2.00 -1.71 -0.29 -2.00 -1.71 -0.29 -1.71 -1.71 -0.29 -1.43 -1.71 -0.29 -1.14 -1.71 -0.29 -0.86 -1.71 -0.29 -0.57 -1.71 -0.29 -0.29 -1.71 -0.29 0.00 -1.71 -0.29 0.29 -1.71 -0.29 0.57 -1.71 -0.29 0.86 -1.71 -0.29 1.14 -1.71 -0.29 1.43 -1.71 -0.29 1.71 -1.71 -0.29 2.00 -1.71 0.00 -2.00 -1.71 0.00 -1.71 -1.71 0.00 -1.43 -1.71 0.00 -1.14 -1.71 0.00 -0.86 -1.71 0.00 -0.57 -1.71 0.00 -0.29 -1.71 0.00 0.00 -1.71 0.00 0.29 -1.71 0.00 0.57 -1.71 0.00 0.86 -1.71 0.00 1.14 -1.71 0.00 1.43 -1.71 0.00 1.71 -1.71 0.00 2.00 -1.71 0.29 -2.00 -1.71 0.29 -1.71 -1.71 0.29 -1.43 -1.71 0.29 -1.14 -1.71 0.29 -0.86 -1.71 0.29 -0.57 -1.71 0.29 -0.29 -1.71 0.29 0.00 -1.71 0.29 0.29 -1.71 0.29 0.57 -1.71 0.29 0.86 -1.71 0.29 1.14 -1.71 0.29 1.43 -1.71 0.29 1.71 -1.71 0.29 2.00 -1.71 0.57 -2.00 -1.71 0.57 -1.71 -1.71 0.57 -1.43 -1.71 0.57 -1.14 -1.71 0.57 -0.86 -1.71 0.57 -0.57 -1.71 0.57 -0.29 -1.71 0.57 0.00 -1.71 0.57 0.29 -1.71 0.57 0.57 -1.71 0.57 0.86 -1.71 0.57 1.14 -1.71 0.57 1.43 -1.71 0.57 1.71 -1.71 0.57 2.00 -1.71 0.86 -2.00 -1.71 0.86 -1.71 -1.71 0.86 -1.43 -1.71 0.86 -1.14 -1.71 0.86 -0.86 -1.71 0.86 -0.57 -1.71 0.86 -0.29 -1.71 0.86 0.00 -1.71 0.86 0.29 -1.71 0.86 0.57 -1.71 0.86 0.86 -1.71 0.86 1.14 -1.71 0.86 1.43 -1.71 0.86 1.71 -1.71 0.86 2.00 -1.71 1.14 -2.00 -1.71 1.14 -1.71 -1.71 1.14 -1.43 -1.71 1.14 -1.14 -1.71 1.14 -0.86 -1.71 1.14 -0.57 -1.71 1.14 -0.29 -1.71 1.14 0.00 -1.71 1.14 0.29 -1.71 1.14 0.57 -1.71 1.14 0.86 -1.71 1.14 1.14 -1.71 1.14 1.43 -1.71 1.14 1.71 -1.71 1.14 2.00 -1.71 1.43 -2.00 -1.71 1.43 -1.71 -1.71 1.43 -1.43 -1.71 1.43 -1.14 -1.71 1.43 -0.86 -1.71 1.43 -0.57 -1.71 1.43 -0.29 -1.71 1.43 0.00 -1.71 1.43 0.29 -1.71 1.43 0.57 -1.71 1.43 0.86 -1.71 1.43 1.14 -1.71 1.43 1.43 -1.71 1.43 1.71 -1.71 1.43 2.00 -1.71 1.71 -2.00 -1.71 1.71 -1.71 -1.71 1.71 -1.43 -1.71 1.71 -1.14 -1.71 1.71 -0.86 -1.71 1.71 -0.57 -1.71 1.71 -0.29 -1.71 1.71 0.00 -1.71 1.71 0.29 -1.71 1.71 0.57 -1.71 1.71 0.86 -1.71 1.71 1.14 -1.71 1.71 1.43 -1.71 1.71 1.71 -1.71 1.71 2.00 -1.71 2.00 -2.00 -1.71 2.00 -1.71 -1.71 2.00 -1.43 -1.71 2.00 -1.14 -1.71 2.00 -0.86 -1.71 2.00 -0.57 -1.71 2.00 -0.29 -1.71 2.00 0.00 -1.71 2.00 0.29 -1.71 2.00 0.57 -1.71 2.00 0.86 -1.71 2.00 1.14 -1.71 2.00 1.43 -1.71 2.00 1.71 -1.71 2.00 2.00 -1.43 -2.00 -2.00 -1.43 -2.00 -1.71 -1.43 -2.00 -1.43 -1.43 -2.00 -1.14 -1.43 -2.00 -0.86 -1.43 -2.00 -0.57 -1.43 -2.00 -0.29 -1.43 -2.00 0.00 -1.43 -2.00 0.29 -1.43 -2.00 0.57 -1.43 -2.00 0.86 -1.43 -2.00 1.14 -1.43 -2.00 1.43 -1.43 -2.00 1.71 -1.43 -2.00 2.00 -1.43 -1.71 -2.00 -1.43 -1.71 -1.71 -1.43 -1.71 -1.43 -1.43 -1.71 -1.14 -1.43 -1.71 -0.86 -1.43 -1.71 -0.57 -1.43 -1.71 -0.29 -1.43 -1.71 0.00 -1.43 -1.71 0.29 -1.43 -1.71 0.57 -1.43 -1.71 0.86 -1.43 -1.71 1.14 -1.43 -1.71 1.43 -1.43 -1.71 1.71 -1.43 -1.71 2.00 -1.43 -1.43 -2.00 -1.43 -1.43 -1.71 -1.43 -1.43 -1.43 -1.43 -1.43 -1.14 -1.43 -1.43 -0.86 -1.43 -1.43 -0.57 -1.43 -1.43 -0.29 -1.43 -1.43 0.00 -1.43 -1.43 0.29 -1.43 -1.43 0.57 -1.43 -1.43 0.86 -1.43 -1.43 1.14 -1.43 -1.43 1.43 -1.43 -1.43 1.71 -1.43 -1.43 2.00 -1.43 -1.14 -2.00 -1.43 -1.14 -1.71 -1.43 -1.14 -1.43 -1.43 -1.14 -1.14 -1.43 -1.14 -0.86 -1.43 -1.14 -0.57 -1.43 -1.14 -0.29 -1.43 -1.14 0.00 -1.43 -1.14 0.29 -1.43 -1.14 0.57 -1.43 -1.14 0.86 -1.43 -1.14 1.14 -1.43 -1.14 1.43 -1.43 -1.14 1.71 -1.43 -1.14 2.00 -1.43 -0.86 -2.00 -1.43 -0.86 -1.71 -1.43 -0.86 -1.43 -1.43 -0.86 -1.14 -1.43 -0.86 -0.86 -1.43 -0.86 -0.57 -1.43 -0.86 -0.29 -1.43 -0.86 0.00 -1.43 -0.86 0.29 -1.43 -0.86 0.57 -1.43 -0.86 0.86 -1.43 -0.86 1.14 -1.43 -0.86 1.43 -1.43 -0.86 1.71 -1.43 -0.86 2.00 -1.43 -0.57 -2.00 -1.43 -0.57 -1.71 -1.43 -0.57 -1.43 -1.43 -0.57 -1.14 -1.43 -0.57 -0.86 -1.43 -0.57 -0.57 -1.43 -0.57 -0.29 -1.43 -0.57 0.00 -1.43 -0.57 0.29 -1.43 -0.57 0.57 -1.43 -0.57 0.86 -1.43 -0.57 1.14 -1.43 -0.57 1.43 -1.43 -0.57 1.71 -1.43 -0.57 2.00 -1.43 -0.29 -2.00 -1.43 -0.29 -1.71 -1.43 -0.29 -1.43 -1.43 -0.29 -1.14 -1.43 -0.29 -0.86 -1.43 -0.29 -0.57 -1.43 -0.29 -0.29 -1.43 -0.29 0.00 -1.43 -0.29 0.29 -1.43 -0.29 0.57 -1.43 -0.29 0.86 -1.43 -0.29 1.14 -1.43 -0.29 1.43 -1.43 -0.29 1.71 -1.43 -0.29 2.00 -1.43 0.00 -2.00 -1.43 0.00 -1.71 -1.43 0.00 -1.43 -1.43 0.00 -1.14 -1.43 0.00 -0.86 -1.43 0.00 -0.57 -1.43 0.00 -0.29 -1.43 0.00 0.00 -1.43 0.00 0.29 -1.43 0.00 0.57 -1.43 0.00 0.86 -1.43 0.00 1.14 -1.43 0.00 1.43 -1.43 0.00 1.71 -1.43 0.00 2.00 -1.43 0.29 -2.00 -1.43 0.29 -1.71 -1.43 0.29 -1.43 -1.43 0.29 -1.14 -1.43 0.29 -0.86 -1.43 0.29 -0.57 -1.43 0.29 -0.29 -1.43 0.29 0.00 -1.43 0.29 0.29 -1.43 0.29 0.57 -1.43 0.29 0.86 -1.43
[...]
POINT_DATA 3375
SCALARS Wave float
LOOKUP_TABLE default
0.00 0.00 0.00 0.00 0.00 0.00 0.00 0.00 0.00 0.00 0.00 0.00 0.00 0.00 0.00 0.00 0.00 0.00 0.00 0.00 0.00 0.00 0.00 0.00 0.00 0.00 0.00 0.00 0.00 0.00 0.00 0.00 0.00 0.00 0.00 0.00 0.00 0.00 0.00 0.00 0.00 0.00 0.00 0.00 0.00 0.00 0.00 0.00 0.00 0.00 0.00 0.00 0.00 0.00 0.00 0.00 0.00 0.00 0.00 0.00 0.00 0.00 0.00 0.00 0.00 0.00 0.00 0.00 0.00 0.00 0.00 0.00 0.00 0.00 0.00 0.00 0.00 0.00 0.00 0.00 0.00 0.00 0.00 0.00 0.00 0.00 0.00 0.00 0.00 0.00 0.00 0.00 0.00 0.00 0.00 0.00 0.00 0.00 0.00 0.00 0.00 0.00 0.00 0.00 0.00 0.00 0.00 0.00 0.00 0.00 0.00 0.00 0.00 0.00 0.00 0.00 0.00 0.00 0.00 0.00 0.00 0.00 0.00 0.00 0.00 0.00 0.00 0.00 0.00 0.00 0.00 0.00 0.00 0.00 0.00 0.00 0.00 0.00 0.00 0.00 0.00 0.00 0.00 0.00 0.00 0.00 0.00 0.00 0.00 0.00 0.00 0.00 0.00 0.00 0.00 0.00 0.00 0.00 0.00 0.00 0.00 0.00 0.00 0.00 0.00 0.00 0.00 0.00 0.00 0.00 0.00 0.00 0.00 0.00 0.00 0.00 0.00 0.00 0.00 0.00 0.00 0.00 0.00 0.00 0.00 0.00 0.00 0.00 0.00 0.00 0.00 0.00 0.00 0.00 0.00 0.00 0.00 0.00 0.00 0.00 0.00 0.00 0.00 0.00 0.00 0.00 0.00 0.00 0.00 0.00 0.00 0.00 0.00 0.00 0.00 0.00 0.00 0.00 0.00 0.00 0.00 0.00 0.00 0.00 0.00 0.00 0.00 0.00 0.00 0.00 0.00 0.00 0.00 0.00 0.00 0.00 0.00 0.00 0.00 0.00 0.00 0.00 0.00 0.00 0.00 0.00 0.00 0.00 0.00 0.00 0.00 0.00 0.00 0.00 0.00 0.00 0.00 0.00 0.00 0.00 0.00 0.00 0.00 0.00 0.00 0.00 0.00 0.00 0.00 0.00 0.00 0.00 0.00 0.00 0.00 0.00 0.00 0.00 0.00 0.00 0.00 0.00 0.00 0.00 0.00 -0.00 -0.00 -0.00 -0.00 0.00 0.00 0.00 0.00 0.00 0.00 0.00 0.00 0.00 0.00 0.00 -0.00 -0.00 -0.00 -0.00 -0.00 -0.00 -0.00 0.00 0.00 0.00 0.00 0.00 0.00 0.00 0.00 0.00 0.00 -0.00 -0.00 -0.00 -0.00 -0.00 -0.00 -0.00 0.00 0.00 0.00 0.00 0.00 0.00 0.00 0.00 0.00 0.00 0.00 -0.00 -0.00 -0.00 -0.00 -0.00 -0.00 0.00 0.00 0.00 0.00 -0.00 -0.00 0.00 0.00 0.00 0.00 0.00 -0.00 -0.00 -0.00 -0.00 -0.00 0.00 0.00 0.00 -0.00 -0.00 -0.00 -0.00 0.00 0.00 0.00 0.00 0.00 -0.00 -0.00 -0.00 -0.00 0.00 -0.00 -0.00 -0.00 -0.00 -0.00 -0.00 -0.00 0.00 0.00 0.00 0.00 -0.00 -0.00 -0.00 0.00 -0.00 0.00 0.00 0.00 -0.00 -0.00 -0.00 -0.00 -0.00 0.00 0.00 0.00 0.00 0.00 0.00 0.00 0.00 0.00 0.00 0.00 0.00 -0.00 -0.00 -0.00 -0.00 0.00 0.00 0.00 0.00 0.00 0.00 -0.00 -0.00 0.00 0.00 0.00 0.00 0.00 -0.00 -0.00 -0.00 -0.00 -0.00 -0.00 0.00 0.00 -0.00 -0.00 -0.00 -0.00 -0.00 0.00 0.00 0.00 0.00 0.00 -0.00 -0.00 -0.00 0.00 0.00 -0.00 -0.00 -0.00 -0.00 -0.00 -0.00 -0.00 0.00 0.00 0.00 0.00 0.00 0.00 0.00 0.00 0.00 0.00 0.00 -0.00 -0.00 0.00 0.00 0.00 0.00 0.00 0.00 0.00 0.00 0.00 0.00 0.00 0.00 0.00 0.00 0.00 0.00 0.00 0.00 0.00 0.00 0.00 0.00 0.00 0.00 0.00 0.00 0.00 0.00 0.00 0.00 0.00 0.00 0.00 0.00 0.00 0.00 0.00 0.00 0.00 0.00 -0.00 0.00 0.00 0.00 0.00 0.00 0.00 0.00 0.00 0.00 0.00 0.00 0.00 0.00 0.00 -0.00 -0.00 -0.00 -0.00 -0.00 -0.00 0.00 0.00 0.00 0.00 0.00 0.00 0.00 0.00 0.00 -0.00 -0.00 -0.00 -0.00 -0.00 -0.00 -0.00 -0.00 -0.00 0.00 0.00 0.00 0.00 0.00 0.00 0.00 0.00 0.00 0.00 -0.00 -0.00 -0.00 -0.00 -0.00 -0.00 0.00 0.00 0.00 0.00 0.00 -0.00 0.00 0.00 0.00 0.00 0.00 -0.00 -0.00 -0.00 -0.00 -0.00 0.00 0.00 0.00 0.00 -0.00 -0.00 -0.00 0.00 0.00 0.00 0.00 0.00 -0.00 -0.00 -0.00 -0.00 0.00 0.00 0.00 -0.00 -0.00 -0.00 -0.00 -0.00 0.00 0.00 0.00 0.00 0.00 -0.00 -0.00 -0.00 0.00 0.00 0.00 -0.00 -0.00 -0.00 -0.00 -0.00 -0.00 0.00 0.00 0.00 0.00 -0.00 -0.00 0.00 0.00 0.00 0.00 0.00 0.00 -0.00 -0.00 -0.00 -0.00 0.00 0.00 0.00 0.00 -0.00 0.00 0.00 -0.00 0.00 0.00 0.00 0.00 0.00 -0.00 -0.00 -0.00 -0.00 0.00 -0.00 -0.00 0.00 0.00 -0.00 -0.00 -0.00 -0.00 0.00 0.00 0.00 0.00 0.00 0.00 -0.00 -0.00 -0.00 0.00 0.00 -0.00 -0.00 -0.00 -0.00 -0.00 -0.00 -0.00 -0.00 0.00 0.00 0.00 0.00 0.00 0.00 0.00 -0.00 -0.00 -0.00 -0.00 -0.00 -0.00 -0.00 0.00 0.00 0.00 0.00 0.00 0.00 0.00 0.00 -0.00 -0.00 0.00 0.00 0.00 0.00 0.00 0.00 0.00 0.00 0.00 0.00 0.00 0.00 0.00 0.00 0.00 0.00 0.00 0.00 0.00 0.00 0.00 0.00 0.00 0.00 0.00 0.00 0.00 0.00 0.00 0.00 0.00 0.00 0.00 0.00 0.00 0.00 0.00 0.00 0.00 0.00 0.00 0.00 0.00 -0.00 -0.00 -0.00 -0.00 -0.00 0.00 0.00 0.00 0.00 0.00 0.00 0.00 0.00 0.00 0.00 -0.00 -0.00 -0.00 -0.00 -0.00 -0.00 -0.00 -0.00 0.00 0.00 0.00 0.00 0.00 0.00 0.00 0.00 0.00 0.00 0.00 -0.00 -0.00 -0.00 -0.00 -0.00 -0.00 0.00 0.00 0.00 0.00 0.00 0.00 0.00 0.00 0.00 0.00 0.00 -0.00 -0.00 -0.00 -0.00 -0.00 0.00 0.00 0.00 0.00 -0.00 0.00 0.00 0.00 0.00 0.00 0.00 0.00 -0.00 -0.00 -0.00 -0.00 0.00 0.00 0.00 -0.00 -0.00 -0.00 -0.00 0.00 0.00 0.00 0.00 0.00 -0.00 -0.00 -0.00 -0.00 0.00 0.00 -0.00 -0.00 -0.00 -0.00 -0.00 -0.00 0.00 0.00 0.00 0.00 -0.00 -0.00 -0.00 0.00 0.00 0.00 0.00 0.00 -0.00 -0.00 -0.00 -0.00 -0.00 0.00 0.00 0.00 -0.00 -0.00 0.00 0.00 0.00 0.00 0.00 0.00 0.00 -0.00 -0.00 -0.00 -0.00 0.00 0.00 0.00 -0.00 0.00 0.00 -0.00 -0.00 -0.00 0.00 0.00 0.00 0.00 0.00 0.00 0.00 0.00 0.00 -0.00 0.00 0.00 -0.00 -0.00 -0.00 -0.00 -0.00 -0.00 -0.00 -0.00 -0.00 -0.00 0.00 0.00 0.00 0.00 0.00 -0.00 -0.00 -0.00 -0.00 -0.00 -0.00 -0.00 -0.00 -0.00 0.00 0.00 0.00 0.00 0.00 0.00 -0.00 -0.00 -0.00 -0.00 -0.00 -0.00 -0.00 0.00 0.00 0.00 0.00 0.00 0.00 0.00 0.00 0.00 0.00 0.00 0.00 0.00 0.00 0.00 0.00 0.00 0.00 0.00 0.00 0.00 0.00 0.00 0.00 0.00 0.00 0.00 0.00 0.00 0.00 0.00 0.00 0.00 0.00 0.00 0.00 0.00 0.00 -0.00 -0.00 -0.00 0.00 0.00 0.00 0.00 0.00 0.00 0.00 0.00 0.00 0.00 0.00 0.01 -0.00 -0.00 -0.00 -0.00 -0.00 -0.00 -0.00 -0.00 0.00 0.00 0.00 0.00 0.00 0.01 0.01 0.00 0.00 0.00 -0.00 -0.00 -0.00 -0.00 -0.00 -0.00 -0.00 0.00 0.00 0.00 0.01 0.01 0.00 0.00 0.00 0.00 0.00 -0.00 -0.00 -0.00 -0.00 -0.00 -0.00 0.00 0.00 0.00 0.01 0.00 0.00 0.00 0.00 0.00 0.00 0.00 -0.00 -0.00 -0.00 -0.00 -0.00 0.00 0.00 0.00 -0.00 -0.00 -0.00 0.00 0.00 0.00 0.00 0.00 0.00 -0.00 -0.00 -0.00 -0.00 0.00 0.00 -0.00 -0.00 -0.00 -0.00 -0.00 -0.00 0.00 0.00 0.00 0.00 -0.00 -0.00 -0.00 0.00 0.00 0.00 0.00 0.00 -0.00 -0.00 -0.00 -0.00 -0.00 0.00 0.00 0.00 -0.00 -0.00 0.00 0.00 0.00 0.00 0.00 0.00 0.00 -0.00 -0.00 -0.00 -0.00 0.00 0.00 -0.00 -0.00 0.00 0.00 -0.00 -0.00 -0.00 0.00 0.00 0.00 0.00 0.00 0.00 0.00 0.00 0.00 -0.00 0.00 0.00 0.00 0.00 0.00 -0.00 -0.00 -0.00 -0.00 -0.00 -0.00 -0.00 -0.00 0.00 0.00 0.00 0.00 -0.00 -0.00 -0.00 -0.00 -0.00 -0.00 -0.00 -0.00 -0.00 -0.00 0.00 0.00 0.00 0.00 0.00 -0.00 -0.00 -0.00 -0.00 -0.00 -0.00 -0.00 -0.00 -0.00 0.00 0.00 0.00 0.00 0.00 0.00 0.00 0.00 0.00 -0.00 -0.00 -0.00 0.00 0.00 0.00 0.00 0.00 0.00 0.00 0.00 0.01 0.00 0.00 0.00 0.00 0.00 0.00 0.00 0.00 0.00 0.00 0.00 0.00 0.00 0.01 0.02 0.00 0.00 0.00 0.00 0.00 0.00 0.00 0.00 0.00 0.00 0.00 0.00 0.01 0.02 0.05 -0.00 -0.00 -0.00 -0.00 -0.00 -0.00 -0.00 0.00 0.00 0.00 0.00 0.00 0.01 0.03 0.06 0.00 0.00 -0.00 -0.00 -0.00 -0.00 -0.00 -0.00 -0.00 0.00 0.00 0.00 0.01 0.02 0.06 -0.00 -0.00 -0.00 -0.00 -0.00 -0.00 -0.00 -0.00 -0.00 -0.00 -0.00 0.00 0.00 0.01 0.04 0.00 0.00 0.00 0.00 0.00 0.00 0.00 -0.00 -0.00 -0.00 -0.00 -0.00 0.00 0.01 0.02 -0.00 0.00 0.00 0.00 0.00 0.00 0.00 0.00 0.00 -0.00 -0.00 -0.00 -0.00 0.00 0.01 -0.00 -0.00 -0.00 -0.00 -0.00 0.00 0.00 0.00 0.00 0.00 -0.00 -0.00 -0.00 0.00 0.00 0.00 0.00 -0.00 -0.00 -0.00 -0.00 -0.00 0.00 0.00 0.00 0.00 -0.00 -0.00 0.00 0.00 0.00 0.00 0.00 0.00 -0.00 -0.00 -0.00 -0.00 0.00 0.00 0.00 -0.00 -0.00 -0.00 0.00 -0.00 -0.00 0.00 0.00 0.00 0.00 0.00 0.00 0.00 0.00 0.00 0.00 -0.00 -0.00 0.00 0.00 0.00 0.00 0.00 0.00 0.00 -0.00 -0.00 -0.00 -0.00 -0.00 -0.00 0.00 0.00 0.00 -0.00 -0.00 -0.00 -0.00 -0.00 -0.00 -0.00 -0.00 -0.00 -0.00 -0.00 0.00 0.00 0.00 0.00 -0.00 -0.00 -0.00 -0.00 -0.00 -0.00 -0.00 -0.00 -0.00 -0.00 0.00 0.00 0.00 0.00 0.01 -0.00 -0.00 -0.00 -0.00 -0.00 -0.00 -0.00 -0.00 -0.00 0.00 0.00 0.00 0.00 0.01 0.03 0.00 0.00 0.00 0.00 0.00 0.00 0.00 0.00 0.00 0.00 0.00 0.00 0.01 0.03 0.08 0.00 0.00 0.00 0.00 0.00 0.00 0.00 0.00 0.00 0.00 0.00 0.00 0.02 0.07 0.22 -0.00 -0.00 -0.00 -0.00 -0.00 -0.00 0.00 0.00 0.00 0.00 0.00 0.00 0.02 0.07 0.25 0.00 0.00 0.00 -0.00 -0.00 -0.00 -0.00 -0.00 -0.00 0.00 0.00 0.00 0.02 0.07 0.24 -0.00 -0.00 -0.00 -0.00 -0.00 -0.00 -0.00 -0.00 -0.00 -0.00 0.00 0.00 0.01 0.03 0.11 0.00 0.00 0.00 0.00 0.00 -0.00 -0.00 -0.00 -0.00 -0.00 -0.00 -0.00 0.00 0.01 0.05 0.00 0.00 0.00 0.00 0.00 0.00 0.00 0.00 -0.00 -0.00 -0.00 -0.00 0.00 0.00 0.02 -0.00 -0.00 -0.00 -0.00 0.00 0.00 0.00 0.00 0.00 0.00 -0.00 -0.00 -0.00 0.00 0.01 -0.00 -0.00 -0.00 -0.00 -0.00 -0.00 -0.00 0.00 0.00 0.00 0.00 -0.00 -0.00 0.00 0.00 0.00 0.00 0.00 0.00 -0.00 -0.00 -0.00 -0.00 0.00 0.00 0.00 -0.00 -0.00 -0.00 0.00 -0.00 0.00 0.00 0.00 0.00 0.00 0.00 0.00 0.00 0.00 0.00 0.00 -0.00 -0.00 0.00 0.00 0.00 0.00 0.00 0.00 0.00 0.00 -0.00 -0.00 -0.00 -0.00 -0.00 -0.00 0.00 0.00 0.00 0.00 0.00 0.00 0.00 0.00 -0.00 -0.00 -0.00 -0.00 -0.00 -0.00 0.00 0.00 0.00 -0.00 -0.00 -0.00 -0.00 -0.00 -0.00 -0.00 -0.00 -0.00 -0.00 -0.00 -0.00 0.00 0.01 0.02 -0.00 -0.00 -0.00 -0.00 -0.00 -0.00 -0.00 -0.00 -0.00 -0.00 -0.00 0.00 0.01 0.02 0.06 0.00 0.00 0.00 0.00 0.00 -0.00 -0.00 -0.00 -0.00 0.00 0.00 0.00 0.01 0.06 0.22 0.00 0.00 0.00 0.00 0.00 0.00 0.00 0.00 0.00 0.00 0.00 0.00 0.02 0.09 0.31 -0.00 -0.00 -0.00 -0.00 0.00 0.00 0.00 0.00 0.00 0.00 0.00 0.01 0.03 0.10 0.33 0.00 0.00 0.00 0.00 0.00 0.00 0.00 0.00 0.00 0.00 0.00 0.00 0.03 0.10 0.32 -0.00 -0.00 -0.00 -0.00 -0.00 -0.00 -0.00 -0.00 -0.00 -0.00 0.00 0.00 0.02 0.07 0.25 0.00 0.00 -0.00 -0.00 -0.00 -0.00 -0.00 -0.00 -0.00 -0.00 -0.00 0.00 0.00 0.03 0.09 0.00 0.00 0.00 0.00 0.00 0.00 0.00 0.00 -0.00 -0.00 -0.00 -0.00 0.00 0.01 0.03 -0.00 -0.00 -0.00 0.00 0.00 0.00 0.00 0.00 0.00 -0.00 -0.00 -0.00 -0.00 0.00 0.01 -0.00 -0.00 -0.00 -0.00 -0.00 -0.00 0.00 0.00 0.00 0.00 -0.00 -0.00 -0.00 0.00 0.00 0.00 0.00 0.00 -0.00 -0.00 -0.00 -0.00 -0.00 0.00 0.00 0.00 -0.00 -0.00 -0.00 0.00 0.00 0.00 0.00 0.00 0.00 0.00 0.00 0.00 0.00 0.00 0.00 0.00 -0.00 -0.00 0.00 0.00 0.00 0.00 0.00 0.00 0.00 0.00 0.00 0.00 -0.00 -0.00 -0.00 -0.00 0.00 0.00 0.00 0.00 0.00 0.00 0.00 0.00 0.00 0.00 -0.00 -0.00 -0.00 -0.00 -0.00 0.00 0.01 0.00 0.00 0.00 0.00 0.00 -0.00 -0.00 -0.00 -0.00 -0.00 -0.00 -0.00 -0.00 0.01 0.02 -0.00 -0.00 -0.00 -0.00 -0.00 -0.00 -0.00 -0.00 -0.00 -0.00 -0.00 0.00 0.00 0.02 0.08 0.00 0.00 -0.00 -0.00 -0.00 -0.00 -0.00 -0.00 -0.00 -0.00 0.00 0.00 0.02 0.07 0.26 -0.00 -0.00 -0.00 -0.00 -0.00 -0.00 -0.00 -0.00 -0.00 0.00 0.00 0.00 0.02 0.10 0.33 -0.00 -0.00 -0.00 -0.00 -0.00 -0.00 -0.00 -0.00 -0.00 0.00 0.00 0.01 0.03 0.11 0.36 0.00 0.00 0.00 0.00 0.00 0.00 0.00 0.00 0.00 0.00 0.00 0.01 0.03 0.11 0.35 -0.00 -0.00 -0.00 -0.00 -0.00 -0.00 0.00 0.00 0.00 0.00 0.00 0.00 0.02 0.09 0.28 -0.00 -0.00 -0.00 -0.00 -0.00 -0.00 -0.00 -0.00 -0.00 -0.00 -0.00 0.00 0.01 0.03 0.11 0.00 0.00 0.00 0.00 0.00 0.00 0.00 -0.00 -0.00 -0.00 -0.00 -0.00 0.00 0.01 0.03 -0.00 0.00 0.00 0.00 0.00 0.00 0.00 0.00 0.00 -0.00 -0.00 -0.00 -0.00 0.00 0.01 -0.00 -0.00 -0.00 -0.00 -0.00 -0.00 0.00 0.00 0.00 0.00 -0.00 -0.00 -0.00 0.00 0.00 0.00 0.00 -0.00 -0.00 -0.00 -0.00 -0.00 -0.00 0.00 0.00 0.00 -0.00 -0.00 -0.00 0.00 0.00 0.00 0.00 0.00 0.00 0.00 0.00 0.00 0.00 0.00 0.00 0.00 -0.00 -0.00 0.00 -0.00 -0.00 -0.00 -0.00 0.00 0.00 0.00 0.00 0.00 0.00 -0.00 -0.00 -0.00 -0.00 0.00 0.00 0.00 0.00 0.00 0.00 0.00 0.00 0.00 0.00 -0.00 -0.00 -0.00 -0.00 -0.00 0.01 0.00 0.00 0.00 0.00 0.00 0.00 0.00 -0.00 -0.00 -0.00 -0.00 -0.00 -0.00 0.00 0.02 -0.00 -0.00 -0.00 -0.00 -0.00 -0.00 -0.00 -0.00 -0.00 -0.00 -0.00 -0.00 0.00 0.02 0.07 0.00 0.00 0.00 0.00 0.00 0.00 0.00 0.00 -0.00 -0.00 0.00 0.00 0.01 0.07 0.24 -0.00 -0.00 -0.00 -0.00 -0.00 -0.00 -0.00 -0.00 -0.00 -0.00 0.00 0.00 0.02 0.10 0.32 -0.00 -0.00 -0.00 -0.00 -0.00 -0.00 -0.00 -0.00 -0.00 -0.00 0.00 0.00 0.03 0.11 0.35 0.00 0.00 0.00 0.00 0.00 0.00 0.00 0.00 0.00 0.00 0.00 0.00 0.03 0.11 0.34 -0.00 -0.00 0.00 0.00 0.00 0.00 0.00 0.00 0.00 0.00 0.00 0.00 0.02 0.08 0.27 -0.00 -0.00 -0.00 -0.00 -0.00 -0.00 -0.00 -0.00 -0.00 -0.00 -0.00 0.00 0.01 0.03 0.09 0.00 0.00 0.00 0.00 0.00 -0.00 -0.00 -0.00 -0.00 -0.00 -0.00 -0.00 0.00 0.01 0.03 0.00 0.00 0.00 0.00 0.00 0.00 0.00 0.00 0.00 -0.00 -0.00 -0.00 -0.00 0.00 0.01 -0.00 -0.00 -0.00 -0.00 -0.00 -0.00 0.00 0.00 0.00 0.00 -0.00 -0.00 -0.00 0.00 0.00 0.00 -0.00 -0.00 -0.00 -0.00 -0.00 -0.00 -0.00 0.00 0.00 0.00 -0.00 -0.00 -0.00 0.00 0.00 0.00 0.00 0.00 0.00 0.00 0.00 0.00 0.00 0.00 0.00 0.00 -0.00 -0.00 0.00 -0.00 -0.00 -0.00 -0.00 -0.00 -0.00 0.00 0.00 0.00 0.00 0.00 -0.00 -0.00 -0.00 0.00 0.00 0.00 0.00 0.00 0.00 0.00 0.00 0.00 0.00 0.00 -0.00 -0.00 -0.00 -0.00 0.00 0.00 0.00 0.00 0.00 0.00 0.00 0.00 0.00 -0.00 -0.00 -0.00 -0.00 -0.00 -0.00 0.01 -0.00 -0.00 -0.00 -0.00 -0.00 -0.00 -0.00 -0.00 -0.00 -0.00 -0.00 -0.00 -0.00 0.01 0.04 0.00 0.00 0.00 0.00 0.00 0.00 0.00 0.00 -0.00 -0.00 -0.00 0.00 0.01 0.04 0.11 -0.00 -0.00 -0.00 0.00 0.00 0.00 0.00 0.00 -0.00 -0.00 0.00 0.00 0.02 0.07 0.25 -0.00 -0.00 -0.00 -0.00 -0.00 -0.00 -0.00 -0.00 -0.00 -0.00 0.00 0.00 0.02 0.09 0.29 0.00 0.00 0.00 0.00 0.00 0.00 0.00 0.00 -0.00 -0.00 0.00 0.00 0.02 0.08 0.26 0.00 0.00 0.00 0.00 0.00 0.00 0.00 0.00 0.00 0.00 0.00 0.00 0.01 0.05 0.13 -0.00 -0.00 -0.00 -0.00 -0.00 -0.00 -0.00 -0.00 -0.00 -0.00 -0.00 0.00 0.00 0.02 0.05 0.00 0.00 0.00 -0.00 -0.00 -0.00 -0.00 -0.00 -0.00 -0.00 -0.00 -0.00 0.00 0.01 0.02 0.00 0.00 0.00 0.00 0.00 0.00 0.00 0.00 0.00 -0.00 -0.00 -0.00 -0.00 0.00 0.01 -0.00 -0.00 -0.00 -0.00 0.00 0.00 0.00 0.00 0.00 0.00 -0.00 -0.00 -0.00 0.00 0.00 -0.00 -0.00 -0.00 -0.00 -0.00 -0.00 -0.00 -0.00 0.00 0.00 0.00 -0.00 -0.00 -0.00 0.00 0.00 0.00 0.00 0.00 0.00 0.00 0.00 0.00 0.00 0.00 0.00 0.00 -0.00 -0.00 0.00 -0.00 -0.00 -0.00 -0.00 -0.00 -0.00 -0.00 0.00 0.00 0.00 0.00 0.00 -0.00 -0.00 0.00 0.00 0.00 0.00 0.00 0.00 0.00 0.00 0.00 0.00 0.00 0.00 -0.00 -0.00 -0.00 0.00 0.00 0.00 0.00 0.00 0.00 0.00 0.00 0.00 0.00 -0.00 -0.00 -0.00 -0.00 -0.00 0.01 -0.00 -0.00 -0.00 -0.00 -0.00 -0.00 -0.00 -0.00 -0.00 -0.00 -0.00 -0.00 -0.00 -0.00 0.02 0.00 0.00 0.00 0.00 0.00 0.00 0.00 0.00 -0.00 -0.00 -0.00 -0.00 -0.00 0.01 0.05 0.00 0.00 0.00 0.00 0.00 0.00 0.00 0.00 0.00 -0.00 -0.00 -0.00 0.01 0.03 0.08 -0.00 -0.00 -0.00 -0.00 -0.00 -0.00 -0.00 -0.00 -0.00 -0.00 -0.00 0.00 0.01 0.04 0.09 0.00 0.00 -0.00 -0.00 -0.00 -0.00 -0.00 -0.00 -0.00 -0.00 0.00 0.00 0.01 0.04 0.08 0.00 0.00 0.00 0.00 0.00 0.00 0.00 0.00 0.00 0.00 0.00 0.00 0.01 0.02 0.05 -0.00 -0.00 -0.00 -0.00 -0.00 -0.00 -0.00 -0.00 -0.00 -0.00 -0.00 0.00 0.00 0.01 0.02 0.00 0.00 -0.00 -0.00 -0.00 -0.00 -0.00 -0.00 -0.00 -0.00 -0.00 -0.00 0.00 0.00 0.01 0.00 0.00 0.00 0.00 0.00 0.00 0.00 0.00 0.00 -0.00 -0.00 -0.00 -0.00 0.00 0.00 -0.00 -0.00 -0.00 0.00 0.00 0.00 0.00 0.00 0.00 0.00 -0.00 -0.00 -0.00 0.00 0.00 -0.00 -0.00 -0.00 -0.00 -0.00 -0.00 -0.00 -0.00 0.00 0.00 0.00 -0.00 -0.00 -0.00 0.00 0.00 0.00 0.00 0.00 0.00 0.00 0.00 0.00 0.00 0.00 0.00 0.00 -0.00 -0.00 0.00 -0.00 -0.00 -0.00 -0.00 -0.00 -0.00 -0.00 -0.00 0.00 0.00 0.00 0.00 -0.00 -0.00 0.00 0.00 0.00 0.00 0.00 0.00 0.00 0.00 0.00 0.00 0.00 0.00 0.00 -0.00 -0.00 0.00 0.00 0.00 0.00 0.00 0.00 0.00 0.00 0.00 0.00 0.00 0.00 -0.00 -0.00 -0.00 0.00 -0.00 -0.00 -0.00 -0.00 -0.00 -0.00 -0.00 -0.00 -0.00 -0.00 -0.00 -0.00 -0.00 -0.00 0.01 0.00 0.00 0.00 0.00 -0.00 -0.00 -0.00 -0.00 -0.00 -0.00 -0.00 -0.00 -0.00 0.00 0.01 0.00 0.00 0.00 0.00 0.00 0.00 0.00 0.00 0.00 -0.00 -0.00 -0.00 -0.00 0.01 0.02 -0.00 -0.00 -0.00 -0.00 -0.00 -0.00 -0.00 -0.00 -0.00 -0.00 -0.00 -0.00 0.00 0.01 0.03 -0.00 -0.00 -0.00 -0.00 -0.00 -0.00 -0.00 -0.00 0.00 -0.00 -0.00 0.00 0.00 0.01 0.02 0.00 0.00 0.00 0.00 0.00 0.00 0.00 0.00 0.00 0.00 0.00 0.00 0.00 0.01 0.01 -0.00 -0.00 -0.00 -0.00 -0.00 -0.00 -0.00 -0.00 0.00 -0.00 -0.00 0.00 0.00 0.00 0.01 -0.00 -0.00 -0.00 -0.00 -0.00 -0.00 -0.00 -0.00 -0.00 -0.00 -0.00 -0.00 0.00 0.00 0.00 0.00 0.00 0.00 0.00 0.00 0.00 0.00 -0.00 0.00 0.00 -0.00 -0.00 -0.00 0.00 0.00 -0.00 -0.00 -0.00 0.00 0.00 0.00 0.00 0.00 0.00 0.00 -0.00 -0.00 -0.00 0.00 0.00 -0.00 -0.00 -0.00 -0.00 -0.00 -0.00 -0.00 -0.00 0.00 0.00 0.00 -0.00 -0.00 -0.00 0.00 0.00 0.00 0.00 0.00 0.00 0.00 0.00 0.00 0.00 0.00 0.00 0.00 -0.00 -0.00 0.00 -0.00 -0.00 -0.00 -0.00 -0.00 -0.00 -0.00 -0.00 -0.00 0.00 0.00 0.00 0.00 -0.00 0.00 0.00 0.00 0.00 0.00 -0.00 -0.00 -0.00 -0.00 0.00 0.00 0.00 0.00 -0.00 -0.00 0.00 0.00 0.00 0.00 0.00 0.00 0.00 0.00 0.00 0.00 0.00 0.00 -0.00 -0.00 -0.00 0.00 -0.00 -0.00 -0.00 -0.00 -0.00 -0.00 0.00 0.00 0.00 0.00 -0.00 -0.00 -0.00 -0.00 0.00 -0.00 -0.00 -0.00 -0.00 -0.00 -0.00 -0.00 -0.00 0.00 -0.00 -0.00 -0.00 -0.00 -0.00 0.00 0.00 0.00 0.00 0.00 0.00 0.00 0.00 0.00 0.00 -0.00 -0.00 -0.00 -0.00 0.00 0.01 -0.00 -0.00 -0.00 0.00 0.00 -0.00 -0.00 -0.00 -0.00 -0.00 -0.00 -0.00 -0.00 0.00 0.01 -0.00 -0.00 -0.00 -0.00 -0.00 -0.00 -0.00 -0.00 0.00 0.00 -0.00 -0.00 0.00 0.00 0.01 0.00 0.00 0.00 0.00 0.00 0.00 0.00 0.00 0.00 0.00 0.00 0.00 0.00 0.00 0.00 -0.00 -0.00 -0.00 -0.00 -0.00 -0.00 -0.00 -0.00 0.00 0.00 -0.00 -0.00 0.00 0.00 0.00 -0.00 -0.00 -0.00 -0.00 -0.00 -0.00 -0.00 -0.00 -0.00 -0.00 -0.00 -0.00 0.00 0.00 0.00 0.00 0.00 0.00 0.00 0.00 0.00 0.00 -0.00 0.00 0.00 -0.00 -0.00 -0.00 0.00 0.00 -0.00 0.00 0.00 0.00 0.00 0.00 0.00 -0.00 0.00 0.00 0.00 -0.00 -0.00 0.00 0.00 -0.00 -0.00 -0.00 -0.00 -0.00 -0.00 -0.00 -0.00 -0.00 0.00 0.00 -0.00 -0.00 -0.00 0.00 0.00 0.00 0.00 0.00 -0.00 0.00 0.00 0.00 0.00 0.00 0.00 0.00 -0.00 -0.00 0.00 -0.00 -0.00 -0.00 -0.00 -0.00 -0.00 -0.00 -0.00 -0.00 -0.00 0.00 0.00 0.00 -0.00 0.00 -0.00 -0.00 -0.00 -0.00 -0.00 -0.00 -0.00 -0.00 -0.00 0.00 0.00 0.00 0.00 -0.00 -0.00 0.00 0.00 0.00 0.00 0.00 0.00 0.00 0.00 0.00 0.00 0.00 0.00 -0.00 -0.00 -0.00 -0.00 -0.00 -0.00 0.00 0.00 0.00 0.00 0.00 0.00 0.00 0.00 -0.00 -0.00 -0.00 0.00 -0.00 -0.00 -0.00 -0.00 -0.00 -0.00 -0.00 0.00 0.00 0.00 -0.00 -0.00 -0.00 -0.00 0.00 0.00 0.00 0.00 0.00 0.00 0.00 0.00 0.00 0.00 0.00 -0.00 -0.00 -0.00 -0.00 0.00 0.00 0.00 0.00 0.00 0.00 -0.00 -0.00 -0.00 -0.00 -0.00 -0.00 -0.00 -0.00 0.00 0.00 -0.00 -0.00 -0.00 -0.00 -0.00 -0.00 -0.00 -0.00 0.00 0.00 -0.00 -0.00 0.00 0.00 0.00 0.00 0.00 0.00 0.00 0.00 0.00 0.00 0.00 0.00 0.00 0.00 -0.00 0.00 0.00 0.00 -0.00 -0.00 -0.00 -0.00 0.00 0.00 -0.00 -0.00 0.00 0.00 0.00 -0.00 0.00 0.00 0.00 -0.00 -0.00 -0.00 -0.00 -0.00 -0.00 -0.00 -0.00 -0.00 0.00 -0.00 -0.00 -0.00 0.00 0.00 0.00 0.00 0.00 0.00 0.00 0.00 0.00 -0.00 -0.00 0.00 -0.00 -0.00 -0.00 0.00 0.00 0.00 0.00 0.00 0.00 0.00 0.00 0.00 -0.00 -0.00 0.00 0.00 -0.00 -0.00 -0.00 0.00 -0.00 -0.00 -0.00 -0.00 -0.00 0.00 0.00 -0.00 -0.00 0.00 0.00 0.00 -0.00 -0.00 0.00 0.00 0.00 0.00 0.00 -0.00 0.00 0.00 0.00 0.00 0.00 0.00 0.00 -0.00 -0.00 0.00 