# vtk DataFile Version 2.0
VTK from Matlab
ASCII
DATASET STRUCTURED_GRID
DIMENSIONS 15 15 15
POINTS 3375 float
-2.00 -2.00 -2.00 -2.00 -2.00 -1.71 -2.00 -2.00 -1.43 -2.00 -2.00 -1.14 -2.00 -2.00 -0.86 -2.00 -2.00 -0.57 -2.00 -2.00 -0.29 -2.00 -2.00 0.00 -2.00 -2.00 0.29 -2.00 -2.00 0.57 -2.00 -2.00 0.86 -2.00 -2.00 1.14 -2.00 -2.00 1.43 -2.00 -2.00 1.71 -2.00 -2.00 2.00 -2.00 -1.71 -2.00 -2.00 -1.71 -1.71 -2.00 -1.71 -1.43 -2.00 -1.71 -1.14 -2.00 -1.71 -0.86 -2.00 -1.71 -0.57 -2.00 -1.71 -0.29 -2.00 -1.71 0.00 -2.00 -1.71 0.29 -2.00 -1.71 0.57 -2.00 -1.71 0.86 -2.00 -1.71 1.14 -2.00 -1.71 1.43 -2.00 -1.71 1.71 -2.00 -1.71 2.00 -2.00 -1.43 -2.00 -2.00 -1.43 -1.71 -2.00 -1.43 -1.43 -2.00 -1.43 -1.14 -2.00 -1.43 -0.86 -2.00 -1.43 -0.57 -2.00 -1.43 -0.29 -2.00 -1.43 0.00 -2.00 -1.43 0.29 -2.00 -1.43 0.57 -2.00 -1.43 0.86 -2.00 -1.43 1.14 -2.00 -1.43 1.43 -2.00 -1.43 1.71 -2.00 -1.43 2.00 -2.00 -1.14 -2.00 -2.00 -1.14 -1.71 -2.00 -1.14 -1.43 -2.00 -1.14 -1.14 -2.00 -1.14 -0.86 -2.00 -1.14 -0.57 -2.00 -1.14 -0.29 -2.00 -1.14 0.00 -2.00 -1.14 0.29 -2.00 -1.14 0.57 -2.00 -1.14 0.86 -2.00 -1.14 1.14 -2.00 -1.14 1.43 -2.00 -1.14 1.71 -2.00 -1.14 2.00 -2.00 -0.86 -2.00 -2.00 -0.86 -1.71 -2.00 -0.86 -1.43 -2.00 -0.86 -1.14 -2.00 -0.86 -0.86 -2.00 -0.86 -0.57 -2.00 -0.86 -0.29 -2.00 -0.86 0.00 -2.00 -0.86 0.29 -2.00 -0.86 0.57 -2.00 -0.86 0.86 -2.00 -0.86 1.14 -2.00 -0.86 1.43 -2.00 -0.86 1.71 -2.00 -0.86 2.00 -2.00 -0.57 -2.00 -2.00 -0.57 -1.71 -2.00 -0.57 -1.43 -2.00 -0.57 -1.14 -2.00 -0.57 -0.86 -2.00 -0.57 -0.57 -2.00 -0.57 -0.29 -2.00 -0.57 0.00 -2.00 -0.57 0.29 -2.00 -0.57 0.57 -2.00 -0.57 0.86 -2.00 -0.57 1.14 -2.00 -0.57 1.43 -2.00 -0.57 1.71 -2.00 -0.57 2.00 -2.00 -0.29 -2.00 -2.00 -0.29 -1.71 -2.00 -0.29 -1.43 -2.00 -0.29 -1.14 -2.00 -0.29 -0.86 -2.00 -0.29 -0.57 -2.00 -0.29 -0.29 -2.00 -0.29 0.00 -2.00 -0.29 0.29 -2.00 -0.29 0.57 -2.00 -0.29 0.86 -2.00 -0.29 1.14 -2.00 -0.29 1.43 -2.00 -0.29 1.71 -2.00 -0.29 2.00 -2.00 0.00 -2.00 -2.00 0.00 -1.71 -2.00 0.00 -1.43 -2.00 0.00 -1.14 -2.00 0.00 -0.86 -2.00 0.00 -0.57 -2.00 0.00 -0.29 -2.00 0.00 0.00 -2.00 0.00 0.29 -2.00 0.00 0.57 -2.00 0.00 0.86 -2.00 0.00 1.14 -2.00 0.00 1.43 -2.00 0.00 1.71 -2.00 0.00 2.00 -2.00 0.29 -2.00 -2.00 0.29 -1.71 -2.00 0.29 -1.43 -2.00 0.29 -1.14 -2.00 0.29 -0.86 -2.00 0.29 -0.57 -2.00 0.29 -0.29 -2.00 0.29 0.00 -2.00 0.29 0.29 -2.00 0.29 0.57 -2.00 0.29 0.86 -2.00 0.29 1.14 -2.00 0.29 1.43 -2.00 0.29 1.71 -2.00 0.29 2.00 -2.00 0.57 -2.00 -2.00 0.57 -1.71 -2.00 0.57 -1.43 -2.00 0.57 -1.14 -2.00 0.57 -0.86 -2.00 0.57 -0.57 -2.00 0.57 -0.29 -2.00 0.57 0.00 -2.00 0.57 0.29 -2.00 0.57 0.57 -2.00 0.57 0.86 -2.00 0.57 1.14 -2.00 0.57 1.43 -2.00 0.57 1.71 -2.00 0.57 2.00 -2.00 0.86 -2.00 -2.00 0.86 -1.71 -2.00 0.86 -1.43 -2.00 0.86 -1.14 -2.00 0.86 -0.86 -2.00 0.86 -0.57 -2.00 0.86 -0.29 -2.00 0.86 0.00 -2.00 0.86 0.29 -2.00 0.86 0.57 -2.00 0.86 0.86 -2.00 0.86 1.14 -2.00 0.86 1.43 -2.00 0.86 1.71 -2.00 0.86 2.00 -2.00 1.14 -2.00 -2.00 1.14 -1.71 -2.00 1.14 -1.43 -2.00 1.14 -1.14 -2.00 1.14 -0.86 -2.00 1.14 -0.57 -2.00 1.14 -0.29 -2.00 1.14 0.00 -2.00 1.14 0.29 -2.00 1.14 0.57 -2.00 1.14 0.86 -2.00 1.14 1.14 -2.00 1.14 1.43 -2.00 1.14 1.71 -2.00 1.14 2.00 -2.00 1.43 -2.00 -2.00 1.43 -1.71 -2.00 1.43 -1.43 -2.00 1.43 -1.14 -2.00 1.43 -0.86 -2.00 1.43 -0.57 -2.00 1.43 -0.29 -2.00 1.43 0.00 -2.00 1.43 0.29 -2.00 1.43 0.57 -2.00 1.43 0.86 -2.00 1.43 1.14 -2.00 1.43 1.43 -2.00 1.43 1.71 -2.00 1.43 2.00 -2.00 1.71 -2.00 -2.00 1.71 -1.71 -2.00 1.71 -1.43 -2.00 1.71 -1.14 -2.00 1.71 -0.86 -2.00 1.71 -0.57 -2.00 1.71 -0.29 -2.00 1.71 0.00 -2.00 1.71 0.29 -2.00 1.71 0.57 -2.00 1.71 0.86 -2.00 1.71 1.14 -2.00 1.71 1.43 -2.00 1.71 1.71 -2.00 1.71 2.00 -2.00 2.00 -2.00 -2.00 2.00 -1.71 -2.00 2.00 -1.43 -2.00 2.00 -1.14 -2.00 2.00 -0.86 -2.00 2.00 -0.57 -2.00 2.00 -0.29 -2.00 2.00 0.00 -2.00 2.00 0.29 -2.00 2.00 0.57 -2.00 2.00 0.86 -2.00 2.00 1.14 -2.00 2.00 1.43 -2.00 2.00 1.71 -2.00 2.00 2.00 -1.71 -2.00 -2.00 -1.71 -2.00 -1.71 -1.71 -2.00 -1.43 -1.71 -2.00 -1.14 -1.71 -2.00 -0.86 -1.71 -2.00 -0.57 -1.71 -2.00 -0.29 -1.71 -2.00 0.00 -1.71 -2.00 0.29 -1.71 -2.00 0.57 -1.71 -2.00 0.86 -1.71 -2.00 1.14 -1.71 -2.00 1.43 -1.71 -2.00 1.71 -1.71 -2.00 2.00 -1.71 -1.71 -2.00 -1.71 -1.71 -1.71 -1.71 -1.71 -1.43 -1.71 -1.71 -1.14 -1.71 -1.71 -0.86 -1.71 -1.71 -0.57 -1.71 -1.71 -0.29 -1.71 -1.71 0.00 -1.71 -1.71 0.29 -1.71 -1.71 0.57 -1.71 -1.71 0.86 -1.71 -1.71 1.14 -1.71 -1.71 1.43 -1.71 -1.71 1.71 -1.71 -1.71 2.00 -1.71 -1.43 -2.00 -1.71 -1.43 -1.71 -1.71 -1.43 -1.43 -1.71 -1.43 -1.14 -1.71 -1.43 -0.86 -1.71 -1.43 -0.57 -1.71 -1.43 -0.29 -1.71 -1.43 0.00 -1.71 -1.43 0.29 -1.71 -1.43 0.57 -1.71 -1.43 0.86 -1.71 -1.43 1.14 -1.71 -1.43 1.43 -1.71 -1.43 1.71 -1.71 -1.43 2.00 -1.71 -1.14 -2.00 -1.71 -1.14 -1.71 -1.71 -1.14 -1.43 -1.71 -1.14 -1.14 -1.71 -1.14 -0.86 -1.71 -1.14 -0.57 -1.71 -1.14 -0.29 -1.71 -1.14 0.00 -1.71 -1.14 0.29 -1.71 -1.14 0.57 -1.71 -1.14 0.86 -1.71 -1.14 1.14 -1.71 -1.14 1.43 -1.71 -1.14 1.71 -1.71 -1.14 2.00 -1.71 -0.86 -2.00 -1.71 -0.86 -1.71 -1.71 -0.86 -1.43 -1.71 -0.86 -1.14 -1.71 -0.86 -0.86 -1.71 -0.86 -0.57 -1.71 -0.86 -0.29 -1.71 -0.86 0.00 -1.71 -0.86 0.29 -1.71 -0.86 0.57 -1.71 -0.86 0.86 -1.71 -0.86 1.14 -1.71 -0.86 1.43 -1.71 -0.86 1.71 -1.71 -0.86 2.00 -1.71 -0.57 -2.00 -1.71 -0.57 -1.71 -1.71 -0.57 -1.43 -1.71 -0.57 -1.14 -1.71 -0.57 -0.86 -1.71 -0.57 -0.57 -1.71 -0.57 -0.29 -1.71 -0.57 0.00 -1.71 -0.57 0.29 -1.71 -0.57 0.57 -1.71 -0.57 0.86 -1.71 -0.57 1.14 -1.71 -0.57 1.43 -1.71 -0.57 1.71 -1.71 -0.57 2.00 -1.71 -0.29 -2.00 -1.71 -0.29 -1.71 -1.71 -0.29 -1.43 -1.71 -0.29 -1.14 -1.71 -0.29 -0.86 -1.71 -0.29 -0.57 -1.71 -0.29 -0.29 -1.71 -0.29 0.00 -1.71 -0.29 0.29 -1.71 -0.29 0.57 -1.71 -0.29 0.86 -1.71 -0.29 1.14 -1.71 -0.29 1.43 -1.71 -0.29 1.71 -1.71 -0.29 2.00 -1.71 0.00 -2.00 -1.71 0.00 -1.71 -1.71 0.00 -1.43 -1.71 0.00 -1.14 -1.71 0.00 -0.86 -1.71 0.00 -0.57 -1.71 0.00 -0.29 -1.71 0.00 0.00 -1.71 0.00 0.29 -1.71 0.00 0.57 -1.71 0.00 0.86 -1.71 0.00 1.14 -1.71 0.00 1.43 -1.71 0.00 1.71 -1.71 0.00 2.00 -1.71 0.29 -2.00 -1.71 0.29 -1.71 -1.71 0.29 -1.43 -1.71 0.29 -1.14 -1.71 0.29 -0.86 -1.71 0.29 -0.57 -1.71 0.29 -0.29 -1.71 0.29 0.00 -1.71 0.29 0.29 -1.71 0.29 0.57 -1.71 0.29 0.86 -1.71 0.29 1.14 -1.71 0.29 1.43 -1.71 0.29 1.71 -1.71 0.29 2.00 -1.71 0.57 -2.00 -1.71 0.57 -1.71 -1.71 0.57 -1.43 -1.71 0.57 -1.14 -1.71 0.57 -0.86 -1.71 0.57 -0.57 -1.71 0.57 -0.29 -1.71 0.57 0.00 -1.71 0.57 0.29 -1.71 0.57 0.57 -1.71 0.57 0.86 -1.71 0.57 1.14 -1.71 0.57 1.43 -1.71 0.57 1.71 -1.71 0.57 2.00 -1.71 0.86 -2.00 -1.71 0.86 -1.71 -1.71 0.86 -1.43 -1.71 0.86 -1.14 -1.71 0.86 -0.86 -1.71 0.86 -0.57 -1.71 0.86 -0.29 -1.71 0.86 0.00 -1.71 0.86 0.29 -1.71 0.86 0.57 -1.71 0.86 0.86 -1.71 0.86 1.14 -1.71 0.86 1.43 -1.71 0.86 1.71 -1.71 0.86 2.00 -1.71 1.14 -2.00 -1.71 1.14 -1.71 -1.71 1.14 -1.43 -1.71 1.14 -1.14 -1.71 1.14 -0.86 -1.71 1.14 -0.57 -1.71 1.14 -0.29 -1.71 1.14 0.00 -1.71 1.14 0.29 -1.71 1.14 0.57 -1.71 1.14 0.86 -1.71 1.14 1.14 -1.71 1.14 1.43 -1.71 1.14 1.71 -1.71 1.14 2.00 -1.71 1.43 -2.00 -1.71 1.43 -1.71 -1.71 1.43 -1.43 -1.71 1.43 -1.14 -1.71 1.43 -0.86 -1.71 1.43 -0.57 -1.71 1.43 -0.29 -1.71 1.43 0.00 -1.71 1.43 0.29 -1.71 1.43 0.57 -1.71 1.43 0.86 -1.71 1.43 1.14 -1.71 1.43 1.43 -1.71 1.43 1.71 -1.71 1.43 2.00 -1.71 1.71 -2.00 -1.71 1.71 -1.71 -1.71 1.71 -1.43 -1.71 1.71 -1.14 -1.71 1.71 -0.86 -1.71 1.71 -0.57 -1.71 1.71 -0.29 -1.71 1.71 0.00 -1.71 1.71 0.29 -1.71 1.71 0.57 -1.71 1.71 0.86 -1.71 1.71 1.14 -1.71 1.71 1.43 -1.71 1.71 1.71 -1.71 1.71 2.00 -1.71 2.00 -2.00 -1.71 2.00 -1.71 -1.71 2.00 -1.43 -1.71 2.00 -1.14 -1.71 2.00 -0.86 -1.71 2.00 -0.57 -1.71 2.00 -0.29 -1.71 2.00 0.00 -1.71 2.00 0.29 -1.71 2.00 0.57 -1.71 2.00 0.86 -1.71 2.00 1.14 -1.71 2.00 1.43 -1.71 2.00 1.71 -1.71 2.00 2.00 -1.43 -2.00 -2.00 -1.43 -2.00 -1.71 -1.43 -2.00 -1.43 -1.43 -2.00 -1.14 -1.43 -2.00 -0.86 -1.43 -2.00 -0.57 -1.43 -2.00 -0.29 -1.43 -2.00 0.00 -1.43 -2.00 0.29 -1.43 -2.00 0.57 -1.43 -2.00 0.86 -1.43 -2.00 1.14 -1.43 -2.00 1.43 -1.43 -2.00 1.71 -1.43 -2.00 2.00 -1.43 -1.71 -2.00 -1.43 -1.71 -1.71 -1.43 -1.71 -1.43 -1.43 -1.71 -1.14 -1.43 -1.71 -0.86 -1.43 -1.71 -0.57 -1.43 -1.71 -0.29 -1.43 -1.71 0.00 -1.43 -1.71 0.29 -1.43 -1.71 0.57 -1.43 -1.71 0.86 -1.43 -1.71 1.14 -1.43 -1.71 1.43 -1.43 -1.71 1.71 -1.43 -1.71 2.00 -1.43 -1.43 -2.00 -1.43 -1.43 -1.71 -1.43 -1.43 -1.43 -1.43 -1.43 -1.14 -1.43 -1.43 -0.86 -1.43 -1.43 -0.57 -1.43 -1.43 -0.29 -1.43 -1.43 0.00 -1.43 -1.43 0.29 -1.43 -1.43 0.57 -1.43 -1.43 0.86 -1.43 -1.43 1.14 -1.43 -1.43 1.43 -1.43 -1.43 1.71 -1.43 -1.43 2.00 -1.43 -1.14 -2.00 -1.43 -1.14 -1.71 -1.43 -1.14 -1.43 -1.43 -1.14 -1.14 -1.43 -1.14 -0.86 -1.43 -1.14 -0.57 -1.43 -1.14 -0.29 -1.43 -1.14 0.00 -1.43 -1.14 0.29 -1.43 -1.14 0.57 -1.43 -1.14 0.86 -1.43 -1.14 1.14 -1.43 -1.14 1.43 -1.43 -1.14 1.71 -1.43 -1.14 2.00 -1.43 -0.86 -2.00 -1.43 -0.86 -1.71 -1.43 -0.86 -1.43 -1.43 -0.86 -1.14 -1.43 -0.86 -0.86 -1.43 -0.86 -0.57 -1.43 -0.86 -0.29 -1.43 -0.86 0.00 -1.43 -0.86 0.29 -1.43 -0.86 0.57 -1.43 -0.86 0.86 -1.43 -0.86 1.14 -1.43 -0.86 1.43 -1.43 -0.86 1.71 -1.43 -0.86 2.00 -1.43 -0.57 -2.00 -1.43 -0.57 -1.71 -1.43 -0.57 -1.43 -1.43 -0.57 -1.14 -1.43 -0.57 -0.86 -1.43 -0.57 -0.57 -1.43 -0.57 -0.29 -1.43 -0.57 0.00 -1.43 -0.57 0.29 -1.43 -0.57 0.57 -1.43 -0.57 0.86 -1.43 -0.57 1.14 -1.43 -0.57 1.43 -1.43 -0.57 1.71 -1.43 -0.57 2.00 -1.43 -0.29 -2.00 -1.43 -0.29 -1.71 -1.43 -0.29 -1.43 -1.43 -0.29 -1.14 -1.43 -0.29 -0.86 -1.43 -0.29 -0.57 -1.43 -0.29 -0.29 -1.43 -0.29 0.00 -1.43 -0.29 0.29 -1.43 -0.29 0.57 -1.43 -0.29 0.86 -1.43 -0.29 1.14 -1.43 -0.29 1.43 -1.43 -0.29 1.71 -1.43 -0.29 2.00 -1.43 0.00 -2.00 -1.43 0.00 -1.71 -1.43 0.00 -1.43 -1.43 0.00 -1.14 -1.43 0.00 -0.86 -1.43 0.00 -0.57 -1.43 0.00 -0.29 -1.43 0.00 0.00 -1.43 0.00 0.29 -1.43 0.00 0.57 -1.43 0.00 0.86 -1.43 0.00 1.14 -1.43 0.00 1.43 -1.43 0.00 1.71 -1.43 0.00 2.00 -1.43 0.29 -2.00 -1.43 0.29 -1.71 -1.43 0.29 -1.43 -1.43 0.29 -1.14 -1.43 0.29 -0.86 -1.43 0.29 -0.57 -1.43 0.29 -0.29 -1.43 0.29 0.00 -1.43 0.29 0.29 -1.43 0.29 0.57 -1.43 0.29 0.86 -1.43
[...]
POINT_DATA 3375
SCALARS Wave float
LOOKUP_TABLE default
0.00 0.00 0.00 0.00 0.00 0.00 0.00 0.00 0.00 0.00 0.00 0.00 0.00 0.00 0.00 0.00 0.00 0.00 0.00 0.00 0.00 0.00 0.00 0.00 0.00 0.00 0.00 0.00 0.00 0.00 0.00 0.00 0.00 0.00 0.00 0.00 0.00 0.00 0.00 0.00 0.00 0.00 0.00 0.00 0.00 0.00 0.00 0.00 0.00 0.00 0.00 0.00 0.00 0.00 0.00 0.00 0.00 0.00 0.00 0.00 0.00 0.00 0.00 0.00 0.00 0.00 0.00 0.00 0.00 0.00 0.00 0.00 0.00 0.00 0.00 0.00 0.00 0.00 0.00 0.00 0.00 0.00 0.00 0.00 0.00 0.00 0.00 0.00 0.00 0.00 0.00 0.00 0.00 0.00 0.00 0.00 0.00 0.00 0.00 0.00 0.00 0.00 0.00 0.00 0.00 0.00 0.00 0.00 0.00 0.00 0.00 0.00 0.00 0.00 0.00 0.00 0.00 0.00 0.00 0.00 0.00 0.00 0.00 0.00 0.00 0.00 0.00 0.00 0.00 0.00 0.00 0.00 0.00 0.00 0.00 0.00 0.00 0.00 0.00 0.00 0.00 0.00 0.00 0.00 0.00 0.00 0.00 0.00 0.00 0.00 0.00 0.00 0.00 0.00 0.00 0.00 0.00 0.00 0.00 0.00 0.00 0.00 0.00 0.00 0.00 0.00 0.00 0.00 0.00 0.00 0.00 0.00 0.00 0.00 0.00 0.00 0.00 0.00 0.00 0.00 0.00 0.00 0.00 0.00 0.00 0.00 0.00 0.00 0.00 0.00 0.00 0.00 0.00 0.00 0.00 0.00 0.00 0.00 0.00 0.00 0.00 0.00 0.00 0.00 0.00 0.00 0.00 0.00 0.00 0.00 0.00 0.00 0.00 0.00 0.00 0.00 0.00 0.00 0.00 0.00 0.00 0.00 0.00 0.00 0.00 0.00 0.00 0.00 0.00 0.00 0.00 0.00 0.00 0.00 0.00 0.00 0.00 0.00 0.00 0.00 0.00 0.00 0.00 0.00 0.00 0.00 0.00 0.00 0.00 0.00 0.00 0.00 0.00 0.00 0.00 0.00 0.00 0.00 0.00 0.00 0.00 0.00 0.00 0.00 0.00 0.00 0.00 0.00 0.00 0.00 0.00 0.00 0.00 0.00 0.00 0.00 0.00 0.00 0.00 0.00 0.00 0.00 0.00 0.00 0.00 0.00 0.00 0.00 0.00 0.00 0.00 0.00 0.00 0.00 0.00 0.00 0.00 0.00 0.00 0.00 0.00 0.00 0.00 0.00 0.00 0.00 0.00 0.00 0.00 0.00 0.00 0.00 0.00 0.00 0.00 0.00 0.00 0.00 0.00 0.00 0.00 0.00 0.00 0.00 0.00 0.00 0.00 0.00 0.00 0.00 0.00 0.00 0.00 0.00 0.00 0.00 0.00 0.00 0.00 0.00 0.00 0.00 0.00 0.00 0.00 -0.00 0.00 0.00 0.00 0.00 0.00 0.00 0.00 0.00 0.00 0.00 0.00 0.00 0.00 0.00 -0.00 -0.00 0.00 0.00 0.00 0.00 0.00 0.00 0.00 0.00 0.00 0.00 0.00 0.00 0.00 -0.00 -0.00 -0.00 0.00 0.00 0.00 0.00 0.00 0.00 0.00 0.00 0.00 0.00 0.00 0.00 -0.00 -0.00 -0.00 -0.00 -0.00 0.00 0.00 0.00 0.00 0.00 0.00 0.00 0.00 0.00 0.00 -0.00 -0.00 -0.00 -0.00 -0.00 -0.00 0.00 0.00 0.00 0.00 0.00 0.00 0.00 0.00 0.00 0.00 -0.00 -0.00 -0.00 -0.00 -0.00 -0.00 0.00 0.00 0.00 0.00 0.00 0.00 0.00 0.00 0.00 0.00 -0.00 -0.00 -0.00 0.00 0.00 0.00 0.00 0.00 0.00 0.00 0.00 0.00 0.00 0.00 0.00 0.00 0.00 0.00 0.00 0.00 0.00 0.00 0.00 0.00 0.00 0.00 0.00 0.00 0.00 0.00 0.00 0.00 0.00 0.00 0.00 0.00 0.00 0.00 0.00 0.00 0.00 0.00 0.00 0.00 0.00 0.00 0.00 0.00 0.00 0.00 0.00 0.00 0.00 0.00 0.00 0.00 0.00 0.00 0.00 0.00 0.00 0.00 0.00 0.00 0.00 0.00 0.00 0.00 0.00 0.00 0.00 0.00 0.00 0.00 0.00 0.00 0.00 0.00 0.00 0.00 0.00 0.00 0.00 0.00 0.00 0.00 0.00 0.01 0.00 0.00 0.00 0.00 0.00 0.00 0.00 0.00 0.00 0.00 0.00 0.00 0.00 0.01 0.01 0.00 0.00 0.00 0.00 0.00 0.00 0.00 0.00 0.00 0.00 0.00 0.00 0.00 0.01 0.01 0.00 0.00 0.00 0.00 0.00 0.00 0.00 0.00 0.00 0.00 0.00 0.00 0.00 0.01 0.01 0.00 0.00 0.00 0.00 0.00 0.00 0.00 0.00 0.00 0.00 0.00 0.00 0.00 0.01 0.01 -0.00 -0.00 0.00 0.00 0.00 0.00 0.00 0.00 0.00 0.00 0.00 0.00 0.00 0.01 0.01 -0.00 -0.00 -0.00 0.00 0.00 0.00 0.00 0.00 0.00 0.00 0.00 0.00 0.00 0.00 0.01 -0.00 -0.00 -0.00 -0.00 -0.00 0.00 0.00 0.00 0.00 0.00 0.00 0.00 0.00 0.00 0.00 -0.00 -0.00 -0.00 -0.00 -0.00 -0.00 0.00 0.00 0.00 0.00 0.00 0.00 0.00 0.00 0.00 0.00 -0.00 -0.00 -0.00 -0.00 -0.00 0.00 0.00 0.00 0.00 0.00 0.00 0.00 0.00 0.00 0.00 0.00 -0.00 -0.00 -0.00 0.00 0.00 0.00 0.00 0.00 0.00 0.00 0.00 0.00 0.00 -0.00 -0.00 0.00 0.00 0.00 0.00 0.00 0.00 0.00 0.00 0.00 0.00 0.00 0.00 0.00 0.00 0.00 0.00 0.00 0.00 0.00 0.00 0.00 0.00 0.00 0.00 0.00 0.00 0.00 0.00 0.00 0.00 0.00 0.00 0.00 0.00 0.00 0.00 0.00 0.00 0.00 0.00 0.00 0.00 0.00 0.00 0.00 0.00 0.00 0.00 0.00 0.00 0.00 0.00 0.00 0.00 0.00 0.00 0.01 0.01 0.00 0.00 0.00 0.00 0.00 0.00 0.00 0.00 0.00 0.00 0.00 0.00 0.01 0.01 0.01 0.00 0.00 0.00 0.00 0.00 0.00 0.00 0.00 0.00 0.00 0.00 0.00 0.01 0.01 0.02 0.00 0.00 0.00 0.00 0.00 0.00 0.00 0.00 0.00 0.00 0.00 0.00 0.01 0.02 0.02 0.00 0.00 0.00 0.00 0.00 0.00 0.00 0.00 0.00 0.00 0.00 0.00 0.01 0.02 0.02 0.00 0.00 0.00 0.00 0.00 0.00 0.00 0.00 0.00 0.00 0.00 0.00 0.01 0.02 0.02 -0.00 -0.00 0.00 0.00 0.00 0.00 0.00 0.00 0.00 0.00 0.00 0.00 0.01 0.01 0.02 -0.00 -0.00 -0.00 0.00 0.00 0.00 0.00 0.00 0.00 0.00 0.00 0.00 0.01 0.01 0.01 -0.00 -0.00 -0.00 -0.00 0.00 0.00 0.00 0.00 0.00 0.00 0.00 0.00 0.00 0.01 0.01 -0.00 -0.00 -0.00 -0.00 -0.00 -0.00 0.00 0.00 0.00 0.00 0.00 0.00 0.00 0.00 0.01 0.00 -0.00 -0.00 -0.00 -0.00 -0.00 0.00 0.00 0.00 0.00 0.00 0.00 0.00 0.00 0.00 0.00 0.00 -0.00 -0.00 -0.00 0.00 0.00 0.00 0.00 0.00 0.00 0.00 0.00 0.00 0.00 -0.00 -0.00 -0.00 0.00 0.00 0.00 0.00 0.00 0.00 0.00 0.00 0.00 0.00 0.00 0.00 -0.00 -0.00 0.00 0.00 0.00 0.00 0.00 0.00 0.00 0.00 0.00 0.00 0.00 0.00 0.01 0.00 0.00 0.00 0.00 0.00 0.00 0.00 0.00 0.00 0.00 0.00 0.00 0.00 0.01 0.01 0.00 0.00 0.00 0.00 0.00 0.00 0.00 0.00 0.00 0.00 0.00 0.00 0.01 0.01 0.02 0.00 0.00 0.00 0.00 0.00 0.00 0.00 0.00 0.00 0.00 0.00 0.01 0.01 0.02 0.03 0.00 0.00 0.00 0.00 0.00 0.00 0.00 0.00 0.00 0.00 0.00 0.01 0.02 0.03 0.05 0.00 0.00 0.00 0.00 0.00 0.00 0.00 0.00 0.00 0.00 0.00 0.01 0.02 0.04 0.06 0.00 0.00 0.00 0.00 0.00 0.00 0.00 0.00 0.00 0.00 0.00 0.01 0.02 0.04 0.06 0.00 0.00 0.00 0.00 0.00 0.00 0.00 0.00 0.00 0.00 0.00 0.01 0.02 0.03 0.05 -0.00 -0.00 0.00 0.00 0.00 0.00 0.00 0.00 0.00 0.00 0.00 0.01 0.01 0.03 0.04 -0.00 -0.00 -0.00 0.00 0.00 0.00 0.00 0.00 0.00 0.00 0.00 0.01 0.01 0.02 0.03 -0.00 -0.00 -0.00 -0.00 0.00 0.00 0.00 0.00 0.00 0.00 0.00 0.00 0.01 0.01 0.02 -0.00 -0.00 -0.00 -0.00 -0.00 0.00 0.00 0.00 0.00 0.00 0.00 0.00 0.00 0.01 0.01 0.00 -0.00 -0.00 -0.00 -0.00 -0.00 0.00 0.00 0.00 0.00 0.00 0.00 0.00 0.00 0.01 0.00 0.00 -0.00 -0.00 -0.00 0.00 0.00 0.00 0.00 0.00 0.00 0.00 0.00 0.00 0.01 -0.00 -0.00 -0.00 -0.00 0.00 0.00 0.00 0.00 0.00 0.00 0.00 0.00 0.00 0.00 0.01 -0.00 -0.00 -0.00 0.00 0.00 0.00 0.00 0.00 0.00 0.00 0.00 0.00 0.00 0.01 0.01 -0.00 0.00 0.00 0.00 0.00 0.00 0.00 0.00 0.00 0.00 0.00 0.00 0.01 0.01 0.02 0.00 0.00 0.00 0.00 0.00 0.00 0.00 0.00 0.00 0.00 0.00 0.01 0.01 0.03 0.04 0.00 0.00 0.00 0.00 0.00 0.00 0.00 0.00 0.00 0.00 0.01 0.01 0.02 0.05 0.07 0.00 0.00 0.00 0.00 0.00 0.00 0.00 0.00 0.00 0.00 0.01 0.02 0.04 0.07 0.12 0.00 0.00 0.00 0.00 0.00 0.00 0.00 0.00 0.00 0.00 0.01 0.02 0.04 0.08 0.15 0.00 0.00 0.00 0.00 0.00 0.00 0.00 0.00 0.00 0.00 0.01 0.02 0.04 0.08 0.15 0.00 0.00 0.00 0.00 0.00 0.00 0.00 0.00 0.00 0.00 0.01 0.02 0.04 0.07 0.12 -0.00 0.00 0.00 0.00 0.00 0.00 0.00 0.00 0.00 0.00 0.01 0.01 0.03 0.05 0.08 -0.00 -0.00 -0.00 0.00 0.00 0.00 0.00 0.00 0.00 0.00 0.00 0.01 0.02 0.03 0.05 -0.00 -0.00 -0.00 -0.00 0.00 0.00 0.00 0.00 0.00 0.00 0.00 0.01 0.01 0.02 0.03 -0.00 -0.00 -0.00 -0.00 -0.00 0.00 0.00 0.00 0.00 0.00 0.00 0.00 0.01 0.01 0.02 0.00 -0.00 -0.00 -0.00 -0.00 -0.00 0.00 0.00 0.00 0.00 0.00 0.00 0.00 0.01 0.01 0.00 0.00 -0.00 -0.00 -0.00 0.00 0.00 0.00 0.00 0.00 0.00 0.00 0.00 0.01 0.01 -0.00 -0.00 -0.00 -0.00 -0.00 0.00 0.00 0.00 0.00 0.00 0.00 0.00 0.00 0.01 0.01 -0.00 -0.00 -0.00 -0.00 0.00 0.00 0.00 0.00 0.00 0.00 0.00 0.00 0.01 0.01 0.02 -0.00 -0.00 -0.00 0.00 0.00 0.00 0.00 0.00 0.00 0.00 0.00 0.01 0.01 0.02 0.04 0.00 0.00 0.00 0.00 0.00 0.00 0.00 0.00 0.00 0.00 0.01 0.01 0.03 0.05 0.08 0.00 0.00 0.00 0.00 0.00 0.00 0.00 0.00 0.00 0.00 0.01 0.02 0.04 0.09 0.16 0.00 0.00 0.00 0.00 0.00 0.00 0.00 0.00 0.00 0.00 0.01 0.03 0.06 0.15 0.33 0.00 0.00 0.00 0.00 0.00 0.00 0.00 0.00 0.00 0.01 0.01 0.03 0.07 0.17 0.39 0.00 0.00 0.00 0.00 0.00 0.00 0.00 0.00 0.00 0.01 0.01 0.03 0.07 0.16 0.38 0.00 0.00 0.00 0.00 0.00 0.00 0.00 0.00 0.00 0.00 0.01 0.03 0.06 0.12 0.24 -0.00 0.00 0.00 0.00 0.00 0.00 0.00 0.00 0.00 0.00 0.01 0.02 0.04 0.08 0.15 -0.00 -0.00 -0.00 0.00 0.00 0.00 0.00 0.00 0.00 0.00 0.01 0.01 0.03 0.05 0.09 -0.00 -0.00 -0.00 -0.00 0.00 0.00 0.00 0.00 0.00 0.00 0.00 0.01 0.02 0.03 0.05 -0.00 -0.00 -0.00 -0.00 -0.00 0.00 0.00 0.00 0.00 0.00 0.00 0.00 0.01 0.02 0.03 -0.00 -0.00 -0.00 -0.00 -0.00 -0.00 0.00 0.00 0.00 0.00 0.00 0.00 0.01 0.01 0.02 0.00 0.00 -0.00 -0.00 -0.00 0.00 0.00 0.00 0.00 0.00 0.00 0.00 0.01 0.01 0.02 -0.00 -0.00 -0.00 -0.00 -0.00 -0.00 -0.00 0.00 0.00 0.00 0.00 0.00 0.01 0.01 0.02 -0.00 -0.00 -0.00 -0.00 -0.00 -0.00 0.00 0.00 0.00 0.00 0.00 0.00 0.01 0.02 0.03 -0.00 -0.00 -0.00 -0.00 0.00 0.00 0.00 0.00 0.00 0.00 0.00 0.01 0.02 0.04 0.06 -0.00 -0.00 0.00 0.00 0.00 0.00 0.00 0.00 0.00 0.00 0.01 0.02 0.04 0.07 0.14 0.00 0.00 0.00 0.00 0.00 0.00 0.00 0.00 0.00 0.00 0.01 0.03 0.06 0.14 0.34 0.00 0.00 0.00 0.00 0.00 0.00 0.00 0.00 0.00 0.01 0.02 0.04 0.09 0.20 0.46 0.00 0.00 0.00 0.00 0.00 0.00 0.00 0.00 0.00 0.01 0.02 0.05 0.10 0.24 0.52 0.00 0.00 0.00 0.00 0.00 0.00 0.00 0.00 0.00 0.01 0.02 0.05 0.11 0.24 0.51 0.00 0.00 0.00 0.00 0.00 0.00 0.00 0.00 0.00 0.01 0.02 0.04 0.09 0.19 0.42 -0.00 0.00 0.00 0.00 0.00 0.00 0.00 0.00 0.00 0.00 0.01 0.03 0.06 0.12 0.23 -0.00 -0.00 0.00 0.00 0.00 0.00 0.00 0.00 0.00 0.00 0.01 0.02 0.04 0.07 0.13 -0.00 -0.00 -0.00 -0.00 0.00 0.00 0.00 0.00 0.00 0.00 0.00 0.01 0.02 0.04 0.07 -0.00 -0.00 -0.00 -0.00 -0.00 0.00 0.00 0.00 0.00 0.00 0.00 0.01 0.01 0.02 0.04 -0.00 -0.00 -0.00 -0.00 -0.00 -0.00 0.00 0.00 0.00 0.00 0.00 0.00 0.01 0.01 0.02 0.00 0.00 -0.00 -0.00 -0.00 0.00 0.00 0.00 0.00 0.00 0.00 0.00 0.01 0.01 0.02 -0.00 -0.00 -0.00 -0.00 -0.00 -0.00 -0.00 -0.00 0.00 0.00 0.00 0.00 0.01 0.01 0.02 -0.00 -0.00 -0.00 -0.00 -0.00 -0.00 -0.00 0.00 0.00 0.00 0.00 0.00 0.01 0.02 0.03 -0.00 -0.00 -0.00 -0.00 -0.00 0.00 0.00 0.00 0.00 0.00 0.00 0.01 0.02 0.04 0.07 -0.00 -0.00 -0.00 0.00 0.00 0.00 0.00 0.00 0.00 0.00 0.01 0.02 0.04 0.09 0.17 -0.00 0.00 0.00 0.00 0.00 0.00 0.00 0.00 0.00 0.01 0.01 0.03 0.08 0.17 0.40 0.00 0.00 0.00 0.00 0.00 0.00 0.00 0.00 0.00 0.01 0.02 0.04 0.10 0.24 0.52 0.00 0.00 0.00 0.00 0.00 0.00 0.00 0.00 0.00 0.01 0.02 0.05 0.12 0.27 0.58 0.00 0.00 0.00 0.00 0.00 0.00 0.00 0.00 0.00 0.01 0.02 0.05 0.12 0.27 0.57 0.00 0.00 0.00 0.00 0.00 0.00 0.00 0.00 0.00 0.01 0.02 0.05 0.11 0.23 0.49 0.00 0.00 0.00 0.00 0.00 0.00 0.00 0.00 0.00 0.01 0.01 0.03 0.07 0.15 0.27 -0.00 -0.00 0.00 0.00 0.00 0.00 0.00 0.00 0.00 0.00 0.01 0.02 0.05 0.09 0.15 -0.00 -0.00 -0.00 -0.00 0.00 0.00 0.00 0.00 0.00 0.00 0.01 0.01 0.03 0.05 0.08 -0.00 -0.00 -0.00 -0.00 -0.00 0.00 0.00 0.00 0.00 0.00 0.00 0.01 0.02 0.03 0.04 -0.00 -0.00 -0.00 -0.00 -0.00 -0.00 0.00 0.00 0.00 0.00 0.00 0.00 0.01 0.02 0.03 0.00 -0.00 -0.00 -0.00 -0.00 0.00 0.00 0.00 0.00 0.00 0.00 0.00 0.01 0.01 0.02 -0.00 -0.00 -0.00 -0.00 -0.00 -0.00 -0.00 -0.00 -0.00 0.00 0.00 0.00 0.01 0.01 0.02 -0.00 -0.00 -0.00 -0.00 -0.00 -0.00 -0.00 -0.00 0.00 0.00 0.00 0.00 0.01 0.02 0.04 -0.00 -0.00 -0.00 -0.00 -0.00 -0.00 0.00 0.00 0.00 0.00 0.00 0.01 0.02 0.04 0.08 -0.00 -0.00 -0.00 -0.00 -0.00 0.00 0.00 0.00 0.00 0.00 0.01 0.02 0.04 0.08 0.17 -0.00 -0.00 -0.00 0.00 0.00 0.00 0.00 0.00 0.00 0.00 0.01 0.03 0.08 0.17 0.39 0.00 0.00 0.00 0.00 0.00 0.00 0.00 0.00 0.00 0.01 0.02 0.05 0.11 0.24 0.52 0.00 0.00 0.00 0.00 0.00 0.00 0.00 0.00 0.00 0.01 0.02 0.05 0.12 0.27 0.58 0.00 0.00 0.00 0.00 0.00 0.00 0.00 0.00 0.00 0.01 0.02 0.06 0.13 0.27 0.57 0.00 0.00 0.00 0.00 0.00 0.00 0.00 0.00 0.00 0.01 0.02 0.05 0.11 0.23 0.47 0.00 0.00 0.00 0.00 0.00 0.00 0.00 0.00 0.00 0.01 0.02 0.04 0.08 0.15 0.26 -0.00 -0.00 0.00 0.00 0.00 0.00 0.00 0.00 0.00 0.00 0.01 0.02 0.05 0.09 0.14 -0.00 -0.00 -0.00 -0.00 0.00 0.00 0.00 0.00 0.00 0.00 0.01 0.01 0.03 0.05 0.08 -0.00 -0.00 -0.00 -0.00 -0.00 0.00 0.00 0.00 0.00 0.00 0.00 0.01 0.02 0.03 0.04 -0.00 -0.00 -0.00 -0.00 -0.00 -0.00 0.00 0.00 0.00 0.00 0.00 0.00 0.01 0.02 0.03 0.00 -0.00 -0.00 -0.00 -0.00 0.00 0.00 0.00 0.00 0.00 0.00 0.00 0.01 0.02 0.02 0.00 -0.00 -0.00 -0.00 -0.00 -0.00 -0.00 -0.00 -0.00 -0.00 0.00 0.00 0.00 0.01 0.02 -0.00 -0.00 -0.00 -0.00 -0.00 -0.00 -0.00 -0.00 -0.00 0.00 0.00 0.00 0.01 0.02 0.03 -0.00 -0.00 -0.00 -0.00 -0.00 -0.00 -0.00 -0.00 0.00 0.00 0.00 0.01 0.02 0.03 0.06 -0.00 -0.00 -0.00 -0.00 -0.00 -0.00 0.00 0.00 0.00 0.00 0.01 0.01 0.03 0.07 0.13 -0.00 -0.00 -0.00 -0.00 0.00 0.00 0.00 0.00 0.00 0.00 0.01 0.03 0.06 0.13 0.24 -0.00 -0.00 0.00 0.00 0.00 0.00 0.00 0.00 0.00 0.01 0.02 0.04 0.09 0.20 0.43 0.00 0.00 0.00 0.00 0.00 0.00 0.00 0.00 0.00 0.01 0.02 0.05 0.11 0.23 0.49 0.00 0.00 0.00 0.00 0.00 0.00 0.00 0.00 0.00 0.01 0.02 0.05 0.11 0.23 0.47 0.00 0.00 0.00 0.00 0.00 0.00 0.00 0.00 0.00 0.01 0.02 0.05 0.09 0.18 0.31 0.00 0.00 0.00 0.00 0.00 0.00 0.00 0.00 0.00 0.01 0.02 0.03 0.07 0.12 0.20 -0.00 -0.00 0.00 0.00 0.00 0.00 0.00 0.00 0.00 0.00 0.01 0.02 0.04 0.08 0.12 -0.00 -0.00 -0.00 -0.00 0.00 0.00 0.00 0.00 0.00 0.00 0.01 0.01 0.03 0.05 0.07 -0.00 -0.00 -0.00 -0.00 -0.00 0.00 0.00 0.00 0.00 0.00 0.00 0.01 0.01 0.03 0.04 -0.00 -0.00 -0.00 -0.00 -0.00 -0.00 0.00 0.00 0.00 0.00 0.00 0.00 0.01 0.02 0.02 0.00 -0.00 -0.00 -0.00 -0.00 0.00 0.00 0.00 0.00 0.00 0.00 0.00 0.01 0.01 0.02 0.00 0.00 -0.00 -0.00 -0.00 -0.00 -0.00 -0.00 -0.00 -0.00 -0.00 0.00 0.00 0.01 0.02 0.00 -0.00 -0.00 -0.00 -0.00 -0.00 -0.00 -0.00 -0.00 -0.00 0.00 0.00 0.01 0.01 0.03 -0.00 -0.00 -0.00 -0.00 -0.00 -0.00 -0.00 -0.00 -0.00 0.00 0.00 0.00 0.01 0.02 0.05 -0.00 -0.00 -0.00 -0.00 -0.00 -0.00 -0.00 0.00 0.00 0.00 0.00 0.01 0.02 0.05 0.09 -0.00 -0.00 -0.00 -0.00 -0.00 -0.00 0.00 0.00 0.00 0.00 0.01 0.02 0.04 0.08 0.15 -0.00 -0.00 -0.00 -0.00 0.00 0.00 0.00 0.00 0.00 0.00 0.01 0.03 0.06 0.13 0.22 -0.00 0.00 0.00 0.00 0.00 0.00 0.00 0.00 0.00 0.01 0.02 0.04 0.08 0.15 0.25 0.00 0.00 0.00 0.00 0.00 0.00 0.00 0.00 0.00 0.01 0.02 0.04 0.08 0.16 0.24 0.00 0.00 0.00 0.00 0.00 0.00 0.00 0.00 0.00 0.01 0.02 0.04 0.07 0.13 0.19 0.00 0.00 0.00 0.00 0.00 0.00 0.00 0.00 0.00 0.01 0.01 0.03 0.05 0.09 0.14 -0.00 0.00 0.00 0.00 0.00 0.00 0.00 0.00 0.00 0.00 0.01 0.02 0.04 0.06 0.09 -0.00 -0.00 -0.00 0.00 0.00 0.00 0.00 0.00 0.00 0.00 0.01 0.01 0.02 0.04 0.05 -0.00 -0.00 -0.00 -0.00 -0.00 0.00 0.00 0.00 0.00 0.00 0.00 0.01 0.01 0.02 0.03 -0.00 -0.00 -0.00 -0.00 -0.00 -0.00 0.00 0.00 0.00 0.00 0.00 0.00 0.01 0.01 0.02 0.00 -0.00 -0.00 -0.00 -0.00 0.00 0.00 0.00 0.00 0.00 0.00 0.00 0.01 0.01 0.02 0.00 0.00 0.00 0.00 -0.00 -0.00 -0.00 -0.00 -0.00 -0.00 -0.00 0.00 0.00 0.00 0.01 0.00 0.00 0.00 -0.00 -0.00 -0.00 -0.00 -0.00 -0.00 -0.00 -0.00 0.00 0.00 0.01 0.02 -0.00 -0.00 -0.00 -0.00 -0.00 -0.00 -0.00 -0.00 -0.00 -0.00 0.00 0.00 0.01 0.02 0.03 -0.00 -0.00 -0.00 -0.00 -0.00 -0.00 -0.00 -0.00 0.00 0.00 0.00 0.01 0.01 0.03 0.06 -0.00 -0.00 -0.00 -0.00 -0.00 -0.00 -0.00 0.00 0.00 0.00 0.00 0.01 0.03 0.05 0.09 -0.00 -0.00 -0.00 -0.00 -0.00 0.00 0.00 0.00 0.00 0.00 0.01 0.02 0.04 0.08 0.12 -0.00 -0.00 -0.00 0.00 0.00 0.00 0.00 0.00 0.00 0.00 0.01 0.03 0.05 0.10 0.14 0.00 0.00 0.00 0.00 0.00 0.00 0.00 0.00 0.00 0.01 0.01 0.03 0.06 0.10 0.14 0.00 0.00 0.00 0.00 0.00 0.00 0.00 0.00 0.00 0.01 0.01 0.03 0.05 0.09 0.12 0.00 0.00 0.00 0.00 0.00 0.00 0.00 0.00 0.00 0.00 0.01 0.02 0.04 0.06 0.09 0.00 0.00 0.00 0.00 0.00 0.00 0.00 0.00 0.00 0.00 0.01 0.01 0.03 0.04 0.06 -0.00 -0.00 -0.00 0.00 0.00 0.00 0.00 0.00 0.00 0.00 0.00 0.01 0.02 0.03 0.04 -0.00 -0.00 -0.00 -0.00 -0.00 0.00 0.00 0.00 0.00 0.00 0.00 0.01 0.01 0.02 0.02 -0.00 -0.00 -0.00 -0.00 -0.00 -0.00 0.00 0.00 0.00 0.00 0.00 0.00 0.01 0.01 0.02 0.00 -0.00 -0.00 -0.00 -0.00 0.00 0.00 0.00 0.00 0.00 0.00 0.00 0.01 0.01 0.02 0.00 0.00 0.00 0.00 0.00 -0.00 -0.00 -0.00 -0.00 -0.00 -0.00 -0.00 0.00 0.00 0.01 0.00 0.00 0.00 0.00 -0.00 -0.00 -0.00 -0.00 -0.00 -0.00 -0.00 0.00 0.00 0.01 0.01 0.00 0.00 -0.00 -0.00 -0.00 -0.00 -0.00 -0.00 -0.00 -0.00 -0.00 0.00 0.00 0.01 0.02 -0.00 -0.00 -0.00 -0.00 -0.00 -0.00 -0.00 -0.00 -0.00 0.00 0.00 0.00 0.01 0.02 0.04 -0.00 -0.00 -0.00 -0.00 -0.00 -0.00 -0.00 -0.00 0.00 0.00 0.00 0.01 0.02 0.04 0.06 -0.00 -0.00 -0.00 -0.00 -0.00 -0.00 0.00 0.00 0.00 0.00 0.01 0.01 0.03 0.05 0.08 -0.00 -0.00 -0.00 -0.00 -0.00 0.00 0.00 0.00 0.00 0.00 0.01 0.02 0.04 0.06 0.09 -0.00 -0.00 0.00 0.00 0.00 0.00 0.00 0.00 0.00 0.00 0.01 0.02 0.04 0.07 0.10 0.00 0.00 0.00 0.00 0.00 0.00 0.00 0.00 0.00 0.00 0.01 0.02 0.04 0.06 0.09 0.00 0.00 0.00 0.00 0.00 0.00 0.00 0.00 0.00 0.00 0.01 0.02 0.03 0.05 0.07 0.00 0.00 0.00 0.00 0.00 0.00 0.00 0.00 0.00 0.00 0.01 0.01 0.02 0.03 0.05 -0.00 -0.00 0.00 0.00 0.00 0.00 0.00 0.00 0.00 0.00 0.00 0.01 0.01 0.02 0.03 -0.00 -0.00 -0.00 -0.00 -0.00 0.00 0.00 0.00 0.00 0.00 0.00 0.00 0.01 0.01 0.02 -0.00 -0.00 -0.00 -0.00 -0.00 0.00 0.00 0.00 0.00 0.00 0.00 0.00 0.01 0.01 0.01 -0.00 -0.00 -0.00 -0.00 -0.00 0.00 0.00 0.00 0.00 0.00 0.00 0.00 0.01 0.01 0.01 0.00 0.00 0.00 0.00 0.00 -0.00 -0.00 -0.00 -0.00 -0.00 -0.00 -0.00 0.00 0.00 0.01 0.00 0.00 0.00 0.00 -0.00 -0.00 -0.00 -0.00 -0.00 -0.00 -0.00 -0.00 0.00 0.01 0.01 0.00 0.00 0.00 -0.00 -0.00 -0.00 -0.00 -0.00 -0.00 -0.00 -0.00 0.00 0.00 0.01 0.02 0.00 -0.00 -0.00 -0.00 -0.00 -0.00 -0.00 -0.00 -0.00 -0.00 0.00 0.00 0.01 0.02 0.04 -0.00 -0.00 -0.00 -0.00 -0.00 -0.00 -0.00 -0.00 -0.00 0.00 0.00 0.01 0.02 0.04 0.06 -0.00 -0.00 -0.00 -0.00 -0.00 -0.00 -0.00 0.00 0.00 0.00 0.01 0.01 0.03 0.05 0.08 -0.00 -0.00 -0.00 -0.00 -0.00 -0.00 0.00 0.00 0.00 0.00 0.01 0.02 0.04 0.06 0.10 -0.00 -0.00 -0.00 -0.00 0.00 0.00 0.00 0.00 0.00 0.00 0.01 0.02 0.04 0.07 0.10 0.00 0.00 0.00 0.00 0.00 0.00 0.00 0.00 0.00 0.00 0.01 0.02 0.04 0.06 0.09 0.00 0.00 0.00 0.00 0.00 0.00 0.00 0.00 0.00 0.00 0.01 0.02 0.03 0.05 0.07 0.00 0.00 0.00 0.00 0.00 0.00 0.00 0.00 0.00 0.00 0.01 0.01 0.02 0.04 0.05 0.00 0.00 0.00 0.00 0.00 0.00 0.00 0.00 0.00 0.00 0.00 0.01 0.02 0.02 0.04 -0.00 -0.00 -0.00 -0.00 0.00 0.00 0.00 0.00 0.00 0.00 0.00 0.01 0.01 0.02 0.02 -0.00 -0.00 -0.00 -0.00 -0.00 0.00 0.00 0.00 0.00 0.00 0.00 0.00 0.01 0.01 0.02 -0.00 -0.00 -0.00 -0.00 -0.00 0.00 0.00 0.00 0.00 0.00 0.00 0.00 0.01 0.01 0.02 